n -t * -s 0  -x 437.37291844439363 -y 341.3122359389962 -Z 0 -z 40  -v circle -c black
n -t * -s 1  -x 43.436783386132113 -y 33.614696577943256 -Z 0 -z 40  -v circle -c black
n -t * -s 2  -x 202.75673186534863 -y 185.91396873160917 -Z 0 -z 40  -v circle -c black
n -t * -s 3  -x 320.09059019390986 -y 210.03951123451793 -Z 0 -z 40  -v circle -c black
n -t * -s 4  -x 167.58164817820381 -y 35.808744856998672 -Z 0 -z 40  -v circle -c black
n -t * -s 5  -x 296.96851447083452 -y 119.85816905268382 -Z 0 -z 40  -v circle -c black
n -t * -s 6  -x 70.309085571351034 -y 147.84095815748023 -Z 0 -z 40  -v circle -c black
V -t * -v 1.0a5 -a 0
W -t * -x 500 -y 500
A -t * -n 1 -p 0 -o 0x7fffffff -c 30 -a 1
A -t * -h 1 -m 1073741823 -s 0
n -t 0.000000 -s 0 -x 154.418213 -y 73.841145 -U 5.834209 -V 7.913261 -T 52.553248
n -t 0.000000 -s 1 -x 160.236764 -y 49.285299 -U 1.948996 -V 6.210102 -T 28.819673
n -t 0.000000 -s 2 -x 337.230548 -y 394.529267 -U -16.433345 -V -11.188402 -T 16.038847
n -t 0.000000 -s 3 -x 170.183987 -y 0.434507 -U -4.664911 -V 3.438908 -T 10.413654
n -t 0.000000 -s 4 -x 424.243372 -y 461.276932 -U -4.737454 -V -3.053560 -T 87.135983
+ -t 2.556838879 -s 1 -d -1 -p cbr -e 512 -c 2 -a 0 -i 0 -k AGT 
- -t 2.556838879 -s 1 -d -1 -p cbr -e 512 -c 2 -a 0 -i 0 -k AGT
h -t 2.556838879 -s 1 -d -1 -p cbr -e 512 -c 2 -a 0 -i 0 -k AGT
+ -t 2.556838879 -s 1 -d -1 -p AODV -e 48 -c 2 -a 0 -i 0 -k RTR 
- -t 2.556838879 -s 1 -d -1 -p AODV -e 48 -c 2 -a 0 -i 0 -k RTR
h -t 2.556838879 -s 1 -d -1 -p AODV -e 48 -c 2 -a 0 -i 0 -k RTR
+ -t 2.556953879 -s 1 -d -1 -p AODV -e 106 -c 2 -a 0 -i 0 -k MAC 
- -t 2.556953879 -s 1 -d -1 -p AODV -e 106 -c 2 -a 0 -i 0 -k MAC
h -t 2.556953879 -s 1 -d -1 -p AODV -e 106 -c 2 -a 0 -i 0 -k MAC
r -t 2.557801976 -s 0 -d -1 -p AODV -e 48 -c 2 -a 0 -i 0 -k MAC
r -t 2.557802067 -s 3 -d -1 -p AODV -e 48 -c 2 -a 0 -i 0 -k MAC
r -t 2.557802298 -s 6 -d -1 -p AODV -e 48 -c 2 -a 0 -i 0 -k MAC
r -t 2.557802354 -s 5 -d -1 -p AODV -e 48 -c 2 -a 0 -i 0 -k MAC
r -t 2.557826976 -s 0 -d -1 -p AODV -e 48 -c 2 -a 0 -i 0 -k RTR
r -t 2.557827067 -s 3 -d -1 -p AODV -e 48 -c 2 -a 0 -i 0 -k RTR
r -t 2.557827298 -s 6 -d -1 -p AODV -e 48 -c 2 -a 0 -i 0 -k RTR
r -t 2.557827354 -s 5 -d -1 -p AODV -e 48 -c 2 -a 0 -i 0 -k RTR
+ -t 2.558708203 -s 0 -d -1 -p AODV -e 48 -c 2 -a 0 -i 0 -k RTR 
- -t 2.558708203 -s 0 -d -1 -p AODV -e 48 -c 2 -a 0 -i 0 -k RTR
h -t 2.558708203 -s 0 -d -1 -p AODV -e 48 -c 2 -a 0 -i 0 -k RTR
+ -t 2.558983203 -s 0 -d -1 -p AODV -e 106 -c 2 -a 0 -i 0 -k MAC 
- -t 2.558983203 -s 0 -d -1 -p AODV -e 106 -c 2 -a 0 -i 0 -k MAC
h -t 2.558983203 -s 0 -d -1 -p AODV -e 106 -c 2 -a 0 -i 0 -k MAC
r -t 2.559831300 -s 1 -d -1 -p AODV -e 48 -c 2 -a 0 -i 0 -k MAC
r -t 2.559831488 -s 3 -d -1 -p AODV -e 48 -c 2 -a 0 -i 0 -k MAC
r -t 2.559831578 -s 6 -d -1 -p AODV -e 48 -c 2 -a 0 -i 0 -k MAC
r -t 2.559831637 -s 5 -d -1 -p AODV -e 48 -c 2 -a 0 -i 0 -k MAC
r -t 2.559856300 -s 1 -d -1 -p AODV -e 48 -c 2 -a 0 -i 0 -k RTR
r -t 2.559856488 -s 3 -d -1 -p AODV -e 48 -c 2 -a 0 -i 0 -k RTR
r -t 2.559856578 -s 6 -d -1 -p AODV -e 48 -c 2 -a 0 -i 0 -k RTR
r -t 2.559856637 -s 5 -d -1 -p AODV -e 48 -c 2 -a 0 -i 0 -k RTR
+ -t 2.560956972 -s 5 -d -1 -p AODV -e 48 -c 2 -a 0 -i 0 -k RTR 
- -t 2.560956972 -s 5 -d -1 -p AODV -e 48 -c 2 -a 0 -i 0 -k RTR
h -t 2.560956972 -s 5 -d -1 -p AODV -e 48 -c 2 -a 0 -i 0 -k RTR
+ -t 2.561391972 -s 5 -d -1 -p AODV -e 106 -c 2 -a 0 -i 0 -k MAC 
- -t 2.561391972 -s 5 -d -1 -p AODV -e 106 -c 2 -a 0 -i 0 -k MAC
h -t 2.561391972 -s 5 -d -1 -p AODV -e 106 -c 2 -a 0 -i 0 -k MAC
+ -t 2.562238800 -s 3 -d -1 -p AODV -e 48 -c 2 -a 0 -i 0 -k RTR 
- -t 2.562238800 -s 3 -d -1 -p AODV -e 48 -c 2 -a 0 -i 0 -k RTR
h -t 2.562238800 -s 3 -d -1 -p AODV -e 48 -c 2 -a 0 -i 0 -k RTR
r -t 2.562240406 -s 0 -d -1 -p AODV -e 48 -c 2 -a 0 -i 0 -k MAC
r -t 2.562240447 -s 1 -d -1 -p AODV -e 48 -c 2 -a 0 -i 0 -k MAC
r -t 2.562240563 -s 3 -d -1 -p AODV -e 48 -c 2 -a 0 -i 0 -k MAC
r -t 2.562240733 -s 6 -d -1 -p AODV -e 48 -c 2 -a 0 -i 0 -k MAC
r -t 2.562240792 -s 2 -d -1 -p AODV -e 48 -c 2 -a 0 -i 0 -k MAC
r -t 2.562265406 -s 0 -d -1 -p AODV -e 48 -c 2 -a 0 -i 0 -k RTR
r -t 2.562265447 -s 1 -d -1 -p AODV -e 48 -c 2 -a 0 -i 0 -k RTR
r -t 2.562265563 -s 3 -d -1 -p AODV -e 48 -c 2 -a 0 -i 0 -k RTR
r -t 2.562265733 -s 6 -d -1 -p AODV -e 48 -c 2 -a 0 -i 0 -k RTR
r -t 2.562265792 -s 2 -d -1 -p AODV -e 48 -c 2 -a 0 -i 0 -k RTR
+ -t 2.562265792 -s 2 -d 5 -p AODV -e 44 -c 2 -a 0 -i 0 -k RTR 
- -t 2.562265792 -s 2 -d 5 -p AODV -e 44 -c 2 -a 0 -i 0 -k RTR
h -t 2.562265792 -s 2 -d 5 -p AODV -e 44 -c 2 -a 0 -i 0 -k RTR
+ -t 2.562360792 -s 2 -d -1 -p ARP -e 86 -c 2 -a 0 -i 0 -k MAC 
- -t 2.562360792 -s 2 -d -1 -p ARP -e 86 -c 2 -a 0 -i 0 -k MAC
h -t 2.562360792 -s 2 -d -1 -p ARP -e 86 -c 2 -a 0 -i 0 -k MAC
r -t 2.563049279 -s 4 -d -1 -p ARP -e 28 -c 2 -a 0 -i 0 -k MAC
r -t 2.563049612 -s 5 -d -1 -p ARP -e 28 -c 2 -a 0 -i 0 -k MAC
+ -t 2.563299612 -s 5 -d -1 -p RTS -e 44 -c 2 -a 0 -i 0 -k MAC 
- -t 2.563299612 -s 5 -d -1 -p RTS -e 44 -c 2 -a 0 -i 0 -k MAC
h -t 2.563299612 -s 5 -d -1 -p RTS -e 44 -c 2 -a 0 -i 0 -k MAC
r -t 2.563652432 -s 2 -d -1 -p RTS -e 44 -c 2 -a 0 -i 0 -k MAC
+ -t 2.563662432 -s 2 -d -1 -p CTS -e 38 -c 2 -a 0 -i 0 -k MAC 
- -t 2.563662432 -s 2 -d -1 -p CTS -e 38 -c 2 -a 0 -i 0 -k MAC
h -t 2.563662432 -s 2 -d -1 -p CTS -e 38 -c 2 -a 0 -i 0 -k MAC
r -t 2.563967252 -s 5 -d -1 -p CTS -e 38 -c 2 -a 0 -i 0 -k MAC
+ -t 2.563977252 -s 5 -d -1 -p ARP -e 86 -c 2 -a 0 -i 0 -k MAC 
- -t 2.563977252 -s 5 -d -1 -p ARP -e 86 -c 2 -a 0 -i 0 -k MAC
h -t 2.563977252 -s 5 -d -1 -p ARP -e 86 -c 2 -a 0 -i 0 -k MAC
r -t 2.564666072 -s 2 -d -1 -p ARP -e 28 -c 2 -a 0 -i 0 -k MAC
+ -t 2.564676072 -s 2 -d -1 -p ACK -e 38 -c 2 -a 0 -i 0 -k MAC 
- -t 2.564676072 -s 2 -d -1 -p ACK -e 38 -c 2 -a 0 -i 0 -k MAC
h -t 2.564676072 -s 2 -d -1 -p ACK -e 38 -c 2 -a 0 -i 0 -k MAC
r -t 2.564980892 -s 5 -d -1 -p ACK -e 38 -c 2 -a 0 -i 0 -k MAC
+ -t 2.565370072 -s 2 -d -1 -p RTS -e 44 -c 2 -a 0 -i 0 -k MAC 
- -t 2.565370072 -s 2 -d -1 -p RTS -e 44 -c 2 -a 0 -i 0 -k MAC
h -t 2.565370072 -s 2 -d -1 -p RTS -e 44 -c 2 -a 0 -i 0 -k MAC
r -t 2.565722892 -s 5 -d -1 -p RTS -e 44 -c 2 -a 0 -i 0 -k MAC
+ -t 2.565732892 -s 5 -d -1 -p CTS -e 38 -c 2 -a 0 -i 0 -k MAC 
- -t 2.565732892 -s 5 -d -1 -p CTS -e 38 -c 2 -a 0 -i 0 -k MAC
h -t 2.565732892 -s 5 -d -1 -p CTS -e 38 -c 2 -a 0 -i 0 -k MAC
+ -t 2.565818853 -s 6 -d -1 -p AODV -e 48 -c 2 -a 0 -i 0 -k RTR 
- -t 2.565818853 -s 6 -d -1 -p AODV -e 48 -c 2 -a 0 -i 0 -k RTR
h -t 2.565818853 -s 6 -d -1 -p AODV -e 48 -c 2 -a 0 -i 0 -k RTR
r -t 2.566037712 -s 2 -d -1 -p CTS -e 38 -c 2 -a 0 -i 0 -k MAC
+ -t 2.566047712 -s 2 -d 5 -p AODV -e 102 -c 2 -a 0 -i 0 -k MAC 
- -t 2.566047712 -s 2 -d 5 -p AODV -e 102 -c 2 -a 0 -i 0 -k MAC
h -t 2.566047712 -s 2 -d 5 -p AODV -e 102 -c 2 -a 0 -i 0 -k MAC
r -t 2.566864532 -s 5 -d 5 -p AODV -e 44 -c 2 -a 0 -i 0 -k MAC
+ -t 2.566874532 -s 5 -d -1 -p ACK -e 38 -c 2 -a 0 -i 0 -k MAC 
- -t 2.566874532 -s 5 -d -1 -p ACK -e 38 -c 2 -a 0 -i 0 -k MAC
h -t 2.566874532 -s 5 -d -1 -p ACK -e 38 -c 2 -a 0 -i 0 -k MAC
+ -t 2.566889532 -s 5 -d 1 -p AODV -e 44 -c 2 -a 0 -i 0 -k RTR 
- -t 2.566889532 -s 5 -d 1 -p AODV -e 44 -c 2 -a 0 -i 0 -k RTR
h -t 2.566889532 -s 5 -d 1 -p AODV -e 44 -c 2 -a 0 -i 0 -k RTR
r -t 2.567179352 -s 2 -d -1 -p ACK -e 38 -c 2 -a 0 -i 0 -k MAC
+ -t 2.567468532 -s 5 -d -1 -p ARP -e 86 -c 2 -a 0 -i 0 -k MAC 
- -t 2.567468532 -s 5 -d -1 -p ARP -e 86 -c 2 -a 0 -i 0 -k MAC
h -t 2.567468532 -s 5 -d -1 -p ARP -e 86 -c 2 -a 0 -i 0 -k MAC
r -t 2.568156965 -s 0 -d -1 -p ARP -e 28 -c 2 -a 0 -i 0 -k MAC
r -t 2.568157007 -s 1 -d -1 -p ARP -e 28 -c 2 -a 0 -i 0 -k MAC
r -t 2.568157123 -s 3 -d -1 -p ARP -e 28 -c 2 -a 0 -i 0 -k MAC
r -t 2.568157293 -s 6 -d -1 -p ARP -e 28 -c 2 -a 0 -i 0 -k MAC
r -t 2.568157352 -s 2 -d -1 -p ARP -e 28 -c 2 -a 0 -i 0 -k MAC
+ -t 2.568227123 -s 3 -d -1 -p AODV -e 106 -c 2 -a 0 -i 0 -k MAC 
- -t 2.568227123 -s 3 -d -1 -p AODV -e 106 -c 2 -a 0 -i 0 -k MAC
h -t 2.568227123 -s 3 -d -1 -p AODV -e 106 -c 2 -a 0 -i 0 -k MAC
r -t 2.569075311 -s 1 -d -1 -p AODV -e 48 -c 2 -a 0 -i 0 -k MAC
r -t 2.569075409 -s 0 -d -1 -p AODV -e 48 -c 2 -a 0 -i 0 -k MAC
r -t 2.569075670 -s 6 -d -1 -p AODV -e 48 -c 2 -a 0 -i 0 -k MAC
r -t 2.569075715 -s 5 -d -1 -p AODV -e 48 -c 2 -a 0 -i 0 -k MAC
r -t 2.569100311 -s 1 -d -1 -p AODV -e 48 -c 2 -a 0 -i 0 -k RTR
r -t 2.569100409 -s 0 -d -1 -p AODV -e 48 -c 2 -a 0 -i 0 -k RTR
r -t 2.569100670 -s 6 -d -1 -p AODV -e 48 -c 2 -a 0 -i 0 -k RTR
r -t 2.569100715 -s 5 -d -1 -p AODV -e 48 -c 2 -a 0 -i 0 -k RTR
+ -t 2.569285670 -s 6 -d -1 -p AODV -e 106 -c 2 -a 0 -i 0 -k MAC 
- -t 2.569285670 -s 6 -d -1 -p AODV -e 106 -c 2 -a 0 -i 0 -k MAC
h -t 2.569285670 -s 6 -d -1 -p AODV -e 106 -c 2 -a 0 -i 0 -k MAC
r -t 2.570134046 -s 0 -d -1 -p AODV -e 48 -c 2 -a 0 -i 0 -k MAC
r -t 2.570134090 -s 1 -d -1 -p AODV -e 48 -c 2 -a 0 -i 0 -k MAC
r -t 2.570134217 -s 3 -d -1 -p AODV -e 48 -c 2 -a 0 -i 0 -k MAC
r -t 2.570134431 -s 5 -d -1 -p AODV -e 48 -c 2 -a 0 -i 0 -k MAC
r -t 2.570159046 -s 0 -d -1 -p AODV -e 48 -c 2 -a 0 -i 0 -k RTR
r -t 2.570159090 -s 1 -d -1 -p AODV -e 48 -c 2 -a 0 -i 0 -k RTR
r -t 2.570159217 -s 3 -d -1 -p AODV -e 48 -c 2 -a 0 -i 0 -k RTR
r -t 2.570159431 -s 5 -d -1 -p AODV -e 48 -c 2 -a 0 -i 0 -k RTR
+ -t 2.570364090 -s 1 -d -1 -p RTS -e 44 -c 2 -a 0 -i 0 -k MAC 
- -t 2.570364090 -s 1 -d -1 -p RTS -e 44 -c 2 -a 0 -i 0 -k MAC
h -t 2.570364090 -s 1 -d -1 -p RTS -e 44 -c 2 -a 0 -i 0 -k MAC
r -t 2.570716565 -s 5 -d -1 -p RTS -e 44 -c 2 -a 0 -i 0 -k MAC
+ -t 2.570726565 -s 5 -d -1 -p CTS -e 38 -c 2 -a 0 -i 0 -k MAC 
- -t 2.570726565 -s 5 -d -1 -p CTS -e 38 -c 2 -a 0 -i 0 -k MAC
h -t 2.570726565 -s 5 -d -1 -p CTS -e 38 -c 2 -a 0 -i 0 -k MAC
r -t 2.571031040 -s 1 -d -1 -p CTS -e 38 -c 2 -a 0 -i 0 -k MAC
+ -t 2.571041040 -s 1 -d -1 -p ARP -e 86 -c 2 -a 0 -i 0 -k MAC 
- -t 2.571041040 -s 1 -d -1 -p ARP -e 86 -c 2 -a 0 -i 0 -k MAC
h -t 2.571041040 -s 1 -d -1 -p ARP -e 86 -c 2 -a 0 -i 0 -k MAC
r -t 2.571729516 -s 5 -d -1 -p ARP -e 28 -c 2 -a 0 -i 0 -k MAC
+ -t 2.571739516 -s 5 -d -1 -p ACK -e 38 -c 2 -a 0 -i 0 -k MAC 
- -t 2.571739516 -s 5 -d -1 -p ACK -e 38 -c 2 -a 0 -i 0 -k MAC
h -t 2.571739516 -s 5 -d -1 -p ACK -e 38 -c 2 -a 0 -i 0 -k MAC
r -t 2.572043991 -s 1 -d -1 -p ACK -e 38 -c 2 -a 0 -i 0 -k MAC
+ -t 2.572213516 -s 5 -d -1 -p RTS -e 44 -c 2 -a 0 -i 0 -k MAC 
- -t 2.572213516 -s 5 -d -1 -p RTS -e 44 -c 2 -a 0 -i 0 -k MAC
h -t 2.572213516 -s 5 -d -1 -p RTS -e 44 -c 2 -a 0 -i 0 -k MAC
r -t 2.572565991 -s 1 -d -1 -p RTS -e 44 -c 2 -a 0 -i 0 -k MAC
+ -t 2.572575991 -s 1 -d -1 -p CTS -e 38 -c 2 -a 0 -i 0 -k MAC 
- -t 2.572575991 -s 1 -d -1 -p CTS -e 38 -c 2 -a 0 -i 0 -k MAC
h -t 2.572575991 -s 1 -d -1 -p CTS -e 38 -c 2 -a 0 -i 0 -k MAC
r -t 2.572880466 -s 5 -d -1 -p CTS -e 38 -c 2 -a 0 -i 0 -k MAC
+ -t 2.572890466 -s 5 -d 1 -p AODV -e 102 -c 2 -a 0 -i 0 -k MAC 
- -t 2.572890466 -s 5 -d 1 -p AODV -e 102 -c 2 -a 0 -i 0 -k MAC
h -t 2.572890466 -s 5 -d 1 -p AODV -e 102 -c 2 -a 0 -i 0 -k MAC
r -t 2.573706941 -s 1 -d 1 -p AODV -e 44 -c 2 -a 0 -i 0 -k MAC
+ -t 2.573716941 -s 1 -d -1 -p ACK -e 38 -c 2 -a 0 -i 0 -k MAC 
- -t 2.573716941 -s 1 -d -1 -p ACK -e 38 -c 2 -a 0 -i 0 -k MAC
h -t 2.573716941 -s 1 -d -1 -p ACK -e 38 -c 2 -a 0 -i 0 -k MAC
+ -t 2.573731941 -s 1 -d 5 -p cbr -e 532 -c 2 -a 0 -i 0 -k RTR 
- -t 2.573731941 -s 1 -d 5 -p cbr -e 532 -c 2 -a 0 -i 0 -k RTR
h -t 2.573731941 -s 1 -d 5 -p cbr -e 532 -c 2 -a 0 -i 0 -k RTR
r -t 2.574021417 -s 5 -d -1 -p ACK -e 38 -c 2 -a 0 -i 0 -k MAC
+ -t 2.574190941 -s 1 -d -1 -p RTS -e 44 -c 2 -a 0 -i 0 -k MAC 
- -t 2.574190941 -s 1 -d -1 -p RTS -e 44 -c 2 -a 0 -i 0 -k MAC
h -t 2.574190941 -s 1 -d -1 -p RTS -e 44 -c 2 -a 0 -i 0 -k MAC
r -t 2.574543417 -s 5 -d -1 -p RTS -e 44 -c 2 -a 0 -i 0 -k MAC
+ -t 2.574553417 -s 5 -d -1 -p CTS -e 38 -c 2 -a 0 -i 0 -k MAC 
- -t 2.574553417 -s 5 -d -1 -p CTS -e 38 -c 2 -a 0 -i 0 -k MAC
h -t 2.574553417 -s 5 -d -1 -p CTS -e 38 -c 2 -a 0 -i 0 -k MAC
r -t 2.574857892 -s 1 -d -1 -p CTS -e 38 -c 2 -a 0 -i 0 -k MAC
+ -t 2.574867892 -s 1 -d 5 -p cbr -e 590 -c 2 -a 0 -i 0 -k MAC 
- -t 2.574867892 -s 1 -d 5 -p cbr -e 590 -c 2 -a 0 -i 0 -k MAC
h -t 2.574867892 -s 1 -d 5 -p cbr -e 590 -c 2 -a 0 -i 0 -k MAC
r -t 2.579588367 -s 5 -d 5 -p cbr -e 532 -c 2 -a 0 -i 0 -k MAC
+ -t 2.579598367 -s 5 -d -1 -p ACK -e 38 -c 2 -a 0 -i 0 -k MAC 
- -t 2.579598367 -s 5 -d -1 -p ACK -e 38 -c 2 -a 0 -i 0 -k MAC
h -t 2.579598367 -s 5 -d -1 -p ACK -e 38 -c 2 -a 0 -i 0 -k MAC
+ -t 2.579613367 -s 5 -d 2 -p cbr -e 532 -c 2 -a 0 -i 0 -k RTR 
- -t 2.579613367 -s 5 -d 2 -p cbr -e 532 -c 2 -a 0 -i 0 -k RTR
h -t 2.579613367 -s 5 -d 2 -p cbr -e 532 -c 2 -a 0 -i 0 -k RTR
r -t 2.579902842 -s 1 -d -1 -p ACK -e 38 -c 2 -a 0 -i 0 -k MAC
+ -t 2.580192367 -s 5 -d -1 -p RTS -e 44 -c 2 -a 0 -i 0 -k MAC 
- -t 2.580192367 -s 5 -d -1 -p RTS -e 44 -c 2 -a 0 -i 0 -k MAC
h -t 2.580192367 -s 5 -d -1 -p RTS -e 44 -c 2 -a 0 -i 0 -k MAC
r -t 2.580545187 -s 2 -d -1 -p RTS -e 44 -c 2 -a 0 -i 0 -k MAC
+ -t 2.580555187 -s 2 -d -1 -p CTS -e 38 -c 2 -a 0 -i 0 -k MAC 
- -t 2.580555187 -s 2 -d -1 -p CTS -e 38 -c 2 -a 0 -i 0 -k MAC
h -t 2.580555187 -s 2 -d -1 -p CTS -e 38 -c 2 -a 0 -i 0 -k MAC
r -t 2.580860006 -s 5 -d -1 -p CTS -e 38 -c 2 -a 0 -i 0 -k MAC
+ -t 2.580870006 -s 5 -d 2 -p cbr -e 590 -c 2 -a 0 -i 0 -k MAC 
- -t 2.580870006 -s 5 -d 2 -p cbr -e 590 -c 2 -a 0 -i 0 -k MAC
h -t 2.580870006 -s 5 -d 2 -p cbr -e 590 -c 2 -a 0 -i 0 -k MAC
r -t 2.585590825 -s 2 -d 2 -p cbr -e 532 -c 2 -a 0 -i 0 -k MAC
+ -t 2.585600825 -s 2 -d -1 -p ACK -e 38 -c 2 -a 0 -i 0 -k MAC 
- -t 2.585600825 -s 2 -d -1 -p ACK -e 38 -c 2 -a 0 -i 0 -k MAC
h -t 2.585600825 -s 2 -d -1 -p ACK -e 38 -c 2 -a 0 -i 0 -k MAC
r -t 2.585615825 -s 2 -d 2 -p cbr -e 532 -c 2 -a 0 -i 0 -k AGT
r -t 2.585905644 -s 5 -d -1 -p ACK -e 38 -c 2 -a 0 -i 0 -k MAC
+ -t 3.057178456 -s 1 -d -1 -p cbr -e 512 -c 2 -a 0 -i 1 -k AGT 
- -t 3.057178456 -s 1 -d -1 -p cbr -e 512 -c 2 -a 0 -i 1 -k AGT
h -t 3.057178456 -s 1 -d -1 -p cbr -e 512 -c 2 -a 0 -i 1 -k AGT
+ -t 3.057178456 -s 1 -d 5 -p cbr -e 532 -c 2 -a 0 -i 1 -k RTR 
- -t 3.057178456 -s 1 -d 5 -p cbr -e 532 -c 2 -a 0 -i 1 -k RTR
h -t 3.057178456 -s 1 -d 5 -p cbr -e 532 -c 2 -a 0 -i 1 -k RTR
+ -t 3.057653456 -s 1 -d -1 -p RTS -e 44 -c 2 -a 0 -i 0 -k MAC 
- -t 3.057653456 -s 1 -d -1 -p RTS -e 44 -c 2 -a 0 -i 0 -k MAC
h -t 3.057653456 -s 1 -d -1 -p RTS -e 44 -c 2 -a 0 -i 0 -k MAC
r -t 3.058005925 -s 5 -d -1 -p RTS -e 44 -c 2 -a 0 -i 0 -k MAC
+ -t 3.058015925 -s 5 -d -1 -p CTS -e 38 -c 2 -a 0 -i 0 -k MAC 
- -t 3.058015925 -s 5 -d -1 -p CTS -e 38 -c 2 -a 0 -i 0 -k MAC
h -t 3.058015925 -s 5 -d -1 -p CTS -e 38 -c 2 -a 0 -i 0 -k MAC
r -t 3.058320393 -s 1 -d -1 -p CTS -e 38 -c 2 -a 0 -i 0 -k MAC
+ -t 3.058330393 -s 1 -d 5 -p cbr -e 590 -c 2 -a 0 -i 1 -k MAC 
- -t 3.058330393 -s 1 -d 5 -p cbr -e 590 -c 2 -a 0 -i 1 -k MAC
h -t 3.058330393 -s 1 -d 5 -p cbr -e 590 -c 2 -a 0 -i 1 -k MAC
r -t 3.063050862 -s 5 -d 5 -p cbr -e 532 -c 2 -a 0 -i 1 -k MAC
+ -t 3.063060862 -s 5 -d -1 -p ACK -e 38 -c 2 -a 0 -i 0 -k MAC 
- -t 3.063060862 -s 5 -d -1 -p ACK -e 38 -c 2 -a 0 -i 0 -k MAC
h -t 3.063060862 -s 5 -d -1 -p ACK -e 38 -c 2 -a 0 -i 0 -k MAC
+ -t 3.063075862 -s 5 -d 2 -p cbr -e 532 -c 2 -a 0 -i 1 -k RTR 
- -t 3.063075862 -s 5 -d 2 -p cbr -e 532 -c 2 -a 0 -i 1 -k RTR
h -t 3.063075862 -s 5 -d 2 -p cbr -e 532 -c 2 -a 0 -i 1 -k RTR
r -t 3.063365330 -s 1 -d -1 -p ACK -e 38 -c 2 -a 0 -i 0 -k MAC
+ -t 3.063954862 -s 5 -d -1 -p RTS -e 44 -c 2 -a 0 -i 0 -k MAC 
- -t 3.063954862 -s 5 -d -1 -p RTS -e 44 -c 2 -a 0 -i 0 -k MAC
h -t 3.063954862 -s 5 -d -1 -p RTS -e 44 -c 2 -a 0 -i 0 -k MAC
r -t 3.064307664 -s 2 -d -1 -p RTS -e 44 -c 2 -a 0 -i 0 -k MAC
+ -t 3.064317664 -s 2 -d -1 -p CTS -e 38 -c 2 -a 0 -i 0 -k MAC 
- -t 3.064317664 -s 2 -d -1 -p CTS -e 38 -c 2 -a 0 -i 0 -k MAC
h -t 3.064317664 -s 2 -d -1 -p CTS -e 38 -c 2 -a 0 -i 0 -k MAC
r -t 3.064622466 -s 5 -d -1 -p CTS -e 38 -c 2 -a 0 -i 0 -k MAC
+ -t 3.064632466 -s 5 -d 2 -p cbr -e 590 -c 2 -a 0 -i 1 -k MAC 
- -t 3.064632466 -s 5 -d 2 -p cbr -e 590 -c 2 -a 0 -i 1 -k MAC
h -t 3.064632466 -s 5 -d 2 -p cbr -e 590 -c 2 -a 0 -i 1 -k MAC
r -t 3.069353268 -s 2 -d 2 -p cbr -e 532 -c 2 -a 0 -i 1 -k MAC
+ -t 3.069363268 -s 2 -d -1 -p ACK -e 38 -c 2 -a 0 -i 0 -k MAC 
- -t 3.069363268 -s 2 -d -1 -p ACK -e 38 -c 2 -a 0 -i 0 -k MAC
h -t 3.069363268 -s 2 -d -1 -p ACK -e 38 -c 2 -a 0 -i 0 -k MAC
r -t 3.069378268 -s 2 -d 2 -p cbr -e 532 -c 2 -a 0 -i 1 -k AGT
r -t 3.069668069 -s 5 -d -1 -p ACK -e 38 -c 2 -a 0 -i 0 -k MAC
+ -t 4.419245737 -s 1 -d -1 -p cbr -e 512 -c 2 -a 0 -i 2 -k AGT 
- -t 4.419245737 -s 1 -d -1 -p cbr -e 512 -c 2 -a 0 -i 2 -k AGT
h -t 4.419245737 -s 1 -d -1 -p cbr -e 512 -c 2 -a 0 -i 2 -k AGT
+ -t 4.419245737 -s 1 -d 5 -p cbr -e 532 -c 2 -a 0 -i 2 -k RTR 
- -t 4.419245737 -s 1 -d 5 -p cbr -e 532 -c 2 -a 0 -i 2 -k RTR
h -t 4.419245737 -s 1 -d 5 -p cbr -e 532 -c 2 -a 0 -i 2 -k RTR
+ -t 4.419680737 -s 1 -d -1 -p RTS -e 44 -c 2 -a 0 -i 0 -k MAC 
- -t 4.419680737 -s 1 -d -1 -p RTS -e 44 -c 2 -a 0 -i 0 -k MAC
h -t 4.419680737 -s 1 -d -1 -p RTS -e 44 -c 2 -a 0 -i 0 -k MAC
r -t 4.420033187 -s 5 -d -1 -p RTS -e 44 -c 2 -a 0 -i 0 -k MAC
+ -t 4.420043187 -s 5 -d -1 -p CTS -e 38 -c 2 -a 0 -i 0 -k MAC 
- -t 4.420043187 -s 5 -d -1 -p CTS -e 38 -c 2 -a 0 -i 0 -k MAC
h -t 4.420043187 -s 5 -d -1 -p CTS -e 38 -c 2 -a 0 -i 0 -k MAC
r -t 4.420347638 -s 1 -d -1 -p CTS -e 38 -c 2 -a 0 -i 0 -k MAC
+ -t 4.420357638 -s 1 -d 5 -p cbr -e 590 -c 2 -a 0 -i 2 -k MAC 
- -t 4.420357638 -s 1 -d 5 -p cbr -e 590 -c 2 -a 0 -i 2 -k MAC
h -t 4.420357638 -s 1 -d 5 -p cbr -e 590 -c 2 -a 0 -i 2 -k MAC
r -t 4.425078089 -s 5 -d 5 -p cbr -e 532 -c 2 -a 0 -i 2 -k MAC
+ -t 4.425088089 -s 5 -d -1 -p ACK -e 38 -c 2 -a 0 -i 0 -k MAC 
- -t 4.425088089 -s 5 -d -1 -p ACK -e 38 -c 2 -a 0 -i 0 -k MAC
h -t 4.425088089 -s 5 -d -1 -p ACK -e 38 -c 2 -a 0 -i 0 -k MAC
+ -t 4.425103089 -s 5 -d 2 -p cbr -e 532 -c 2 -a 0 -i 2 -k RTR 
- -t 4.425103089 -s 5 -d 2 -p cbr -e 532 -c 2 -a 0 -i 2 -k RTR
h -t 4.425103089 -s 5 -d 2 -p cbr -e 532 -c 2 -a 0 -i 2 -k RTR
r -t 4.425392539 -s 1 -d -1 -p ACK -e 38 -c 2 -a 0 -i 0 -k MAC
+ -t 4.425582089 -s 5 -d -1 -p RTS -e 44 -c 2 -a 0 -i 0 -k MAC 
- -t 4.425582089 -s 5 -d -1 -p RTS -e 44 -c 2 -a 0 -i 0 -k MAC
h -t 4.425582089 -s 5 -d -1 -p RTS -e 44 -c 2 -a 0 -i 0 -k MAC
r -t 4.425934847 -s 2 -d -1 -p RTS -e 44 -c 2 -a 0 -i 0 -k MAC
+ -t 4.425944847 -s 2 -d -1 -p CTS -e 38 -c 2 -a 0 -i 0 -k MAC 
- -t 4.425944847 -s 2 -d -1 -p CTS -e 38 -c 2 -a 0 -i 0 -k MAC
h -t 4.425944847 -s 2 -d -1 -p CTS -e 38 -c 2 -a 0 -i 0 -k MAC
r -t 4.426249605 -s 5 -d -1 -p CTS -e 38 -c 2 -a 0 -i 0 -k MAC
+ -t 4.426259605 -s 5 -d 2 -p cbr -e 590 -c 2 -a 0 -i 2 -k MAC 
- -t 4.426259605 -s 5 -d 2 -p cbr -e 590 -c 2 -a 0 -i 2 -k MAC
h -t 4.426259605 -s 5 -d 2 -p cbr -e 590 -c 2 -a 0 -i 2 -k MAC
r -t 4.430980363 -s 2 -d 2 -p cbr -e 532 -c 2 -a 0 -i 2 -k MAC
+ -t 4.430990363 -s 2 -d -1 -p ACK -e 38 -c 2 -a 0 -i 0 -k MAC 
- -t 4.430990363 -s 2 -d -1 -p ACK -e 38 -c 2 -a 0 -i 0 -k MAC
h -t 4.430990363 -s 2 -d -1 -p ACK -e 38 -c 2 -a 0 -i 0 -k MAC
r -t 4.431005363 -s 2 -d 2 -p cbr -e 532 -c 2 -a 0 -i 2 -k AGT
r -t 4.431295122 -s 5 -d -1 -p ACK -e 38 -c 2 -a 0 -i 0 -k MAC
+ -t 5.596594680 -s 1 -d -1 -p cbr -e 512 -c 2 -a 0 -i 3 -k AGT 
- -t 5.596594680 -s 1 -d -1 -p cbr -e 512 -c 2 -a 0 -i 3 -k AGT
h -t 5.596594680 -s 1 -d -1 -p cbr -e 512 -c 2 -a 0 -i 3 -k AGT
+ -t 5.596594680 -s 1 -d 5 -p cbr -e 532 -c 2 -a 0 -i 3 -k RTR 
- -t 5.596594680 -s 1 -d 5 -p cbr -e 532 -c 2 -a 0 -i 3 -k RTR
h -t 5.596594680 -s 1 -d 5 -p cbr -e 532 -c 2 -a 0 -i 3 -k RTR
+ -t 5.596769680 -s 1 -d -1 -p RTS -e 44 -c 2 -a 0 -i 0 -k MAC 
- -t 5.596769680 -s 1 -d -1 -p RTS -e 44 -c 2 -a 0 -i 0 -k MAC
h -t 5.596769680 -s 1 -d -1 -p RTS -e 44 -c 2 -a 0 -i 0 -k MAC
r -t 5.597122116 -s 5 -d -1 -p RTS -e 44 -c 2 -a 0 -i 0 -k MAC
+ -t 5.597132116 -s 5 -d -1 -p CTS -e 38 -c 2 -a 0 -i 0 -k MAC 
- -t 5.597132116 -s 5 -d -1 -p CTS -e 38 -c 2 -a 0 -i 0 -k MAC
h -t 5.597132116 -s 5 -d -1 -p CTS -e 38 -c 2 -a 0 -i 0 -k MAC
r -t 5.597436552 -s 1 -d -1 -p CTS -e 38 -c 2 -a 0 -i 0 -k MAC
+ -t 5.597446552 -s 1 -d 5 -p cbr -e 590 -c 2 -a 0 -i 3 -k MAC 
- -t 5.597446552 -s 1 -d 5 -p cbr -e 590 -c 2 -a 0 -i 3 -k MAC
h -t 5.597446552 -s 1 -d 5 -p cbr -e 590 -c 2 -a 0 -i 3 -k MAC
r -t 5.602166988 -s 5 -d 5 -p cbr -e 532 -c 2 -a 0 -i 3 -k MAC
+ -t 5.602176988 -s 5 -d -1 -p ACK -e 38 -c 2 -a 0 -i 0 -k MAC 
- -t 5.602176988 -s 5 -d -1 -p ACK -e 38 -c 2 -a 0 -i 0 -k MAC
h -t 5.602176988 -s 5 -d -1 -p ACK -e 38 -c 2 -a 0 -i 0 -k MAC
+ -t 5.602191988 -s 5 -d 2 -p cbr -e 532 -c 2 -a 0 -i 3 -k RTR 
- -t 5.602191988 -s 5 -d 2 -p cbr -e 532 -c 2 -a 0 -i 3 -k RTR
h -t 5.602191988 -s 5 -d 2 -p cbr -e 532 -c 2 -a 0 -i 3 -k RTR
r -t 5.602481424 -s 1 -d -1 -p ACK -e 38 -c 2 -a 0 -i 0 -k MAC
+ -t 5.603050988 -s 5 -d -1 -p RTS -e 44 -c 2 -a 0 -i 0 -k MAC 
- -t 5.603050988 -s 5 -d -1 -p RTS -e 44 -c 2 -a 0 -i 0 -k MAC
h -t 5.603050988 -s 5 -d -1 -p RTS -e 44 -c 2 -a 0 -i 0 -k MAC
r -t 5.603403716 -s 2 -d -1 -p RTS -e 44 -c 2 -a 0 -i 0 -k MAC
+ -t 5.603413716 -s 2 -d -1 -p CTS -e 38 -c 2 -a 0 -i 0 -k MAC 
- -t 5.603413716 -s 2 -d -1 -p CTS -e 38 -c 2 -a 0 -i 0 -k MAC
h -t 5.603413716 -s 2 -d -1 -p CTS -e 38 -c 2 -a 0 -i 0 -k MAC
r -t 5.603718443 -s 5 -d -1 -p CTS -e 38 -c 2 -a 0 -i 0 -k MAC
+ -t 5.603728443 -s 5 -d 2 -p cbr -e 590 -c 2 -a 0 -i 3 -k MAC 
- -t 5.603728443 -s 5 -d 2 -p cbr -e 590 -c 2 -a 0 -i 3 -k MAC
h -t 5.603728443 -s 5 -d 2 -p cbr -e 590 -c 2 -a 0 -i 3 -k MAC
r -t 5.608449170 -s 2 -d 2 -p cbr -e 532 -c 2 -a 0 -i 3 -k MAC
+ -t 5.608459170 -s 2 -d -1 -p ACK -e 38 -c 2 -a 0 -i 0 -k MAC 
- -t 5.608459170 -s 2 -d -1 -p ACK -e 38 -c 2 -a 0 -i 0 -k MAC
h -t 5.608459170 -s 2 -d -1 -p ACK -e 38 -c 2 -a 0 -i 0 -k MAC
r -t 5.608474170 -s 2 -d 2 -p cbr -e 532 -c 2 -a 0 -i 3 -k AGT
r -t 5.608763898 -s 5 -d -1 -p ACK -e 38 -c 2 -a 0 -i 0 -k MAC
+ -t 6.500802208 -s 1 -d -1 -p cbr -e 512 -c 2 -a 0 -i 4 -k AGT 
- -t 6.500802208 -s 1 -d -1 -p cbr -e 512 -c 2 -a 0 -i 4 -k AGT
h -t 6.500802208 -s 1 -d -1 -p cbr -e 512 -c 2 -a 0 -i 4 -k AGT
+ -t 6.500802208 -s 1 -d 5 -p cbr -e 532 -c 2 -a 0 -i 4 -k RTR 
- -t 6.500802208 -s 1 -d 5 -p cbr -e 532 -c 2 -a 0 -i 4 -k RTR
h -t 6.500802208 -s 1 -d 5 -p cbr -e 532 -c 2 -a 0 -i 4 -k RTR
+ -t 6.500937208 -s 1 -d -1 -p RTS -e 44 -c 2 -a 0 -i 0 -k MAC 
- -t 6.500937208 -s 1 -d -1 -p RTS -e 44 -c 2 -a 0 -i 0 -k MAC
h -t 6.500937208 -s 1 -d -1 -p RTS -e 44 -c 2 -a 0 -i 0 -k MAC
r -t 6.501289634 -s 5 -d -1 -p RTS -e 44 -c 2 -a 0 -i 0 -k MAC
+ -t 6.501299634 -s 5 -d -1 -p CTS -e 38 -c 2 -a 0 -i 0 -k MAC 
- -t 6.501299634 -s 5 -d -1 -p CTS -e 38 -c 2 -a 0 -i 0 -k MAC
h -t 6.501299634 -s 5 -d -1 -p CTS -e 38 -c 2 -a 0 -i 0 -k MAC
r -t 6.501604059 -s 1 -d -1 -p CTS -e 38 -c 2 -a 0 -i 0 -k MAC
+ -t 6.501614059 -s 1 -d 5 -p cbr -e 590 -c 2 -a 0 -i 4 -k MAC 
- -t 6.501614059 -s 1 -d 5 -p cbr -e 590 -c 2 -a 0 -i 4 -k MAC
h -t 6.501614059 -s 1 -d 5 -p cbr -e 590 -c 2 -a 0 -i 4 -k MAC
r -t 6.506334485 -s 5 -d 5 -p cbr -e 532 -c 2 -a 0 -i 4 -k MAC
+ -t 6.506344485 -s 5 -d -1 -p ACK -e 38 -c 2 -a 0 -i 0 -k MAC 
- -t 6.506344485 -s 5 -d -1 -p ACK -e 38 -c 2 -a 0 -i 0 -k MAC
h -t 6.506344485 -s 5 -d -1 -p ACK -e 38 -c 2 -a 0 -i 0 -k MAC
+ -t 6.506359485 -s 5 -d 2 -p cbr -e 532 -c 2 -a 0 -i 4 -k RTR 
- -t 6.506359485 -s 5 -d 2 -p cbr -e 532 -c 2 -a 0 -i 4 -k RTR
h -t 6.506359485 -s 5 -d 2 -p cbr -e 532 -c 2 -a 0 -i 4 -k RTR
r -t 6.506648910 -s 1 -d -1 -p ACK -e 38 -c 2 -a 0 -i 0 -k MAC
+ -t 6.506818485 -s 5 -d -1 -p RTS -e 44 -c 2 -a 0 -i 0 -k MAC 
- -t 6.506818485 -s 5 -d -1 -p RTS -e 44 -c 2 -a 0 -i 0 -k MAC
h -t 6.506818485 -s 5 -d -1 -p RTS -e 44 -c 2 -a 0 -i 0 -k MAC
r -t 6.507171194 -s 2 -d -1 -p RTS -e 44 -c 2 -a 0 -i 0 -k MAC
+ -t 6.507181194 -s 2 -d -1 -p CTS -e 38 -c 2 -a 0 -i 0 -k MAC 
- -t 6.507181194 -s 2 -d -1 -p CTS -e 38 -c 2 -a 0 -i 0 -k MAC
h -t 6.507181194 -s 2 -d -1 -p CTS -e 38 -c 2 -a 0 -i 0 -k MAC
r -t 6.507485902 -s 5 -d -1 -p CTS -e 38 -c 2 -a 0 -i 0 -k MAC
+ -t 6.507495902 -s 5 -d 2 -p cbr -e 590 -c 2 -a 0 -i 4 -k MAC 
- -t 6.507495902 -s 5 -d 2 -p cbr -e 590 -c 2 -a 0 -i 4 -k MAC
h -t 6.507495902 -s 5 -d 2 -p cbr -e 590 -c 2 -a 0 -i 4 -k MAC
r -t 6.512216611 -s 2 -d 2 -p cbr -e 532 -c 2 -a 0 -i 4 -k MAC
+ -t 6.512226611 -s 2 -d -1 -p ACK -e 38 -c 2 -a 0 -i 0 -k MAC 
- -t 6.512226611 -s 2 -d -1 -p ACK -e 38 -c 2 -a 0 -i 0 -k MAC
h -t 6.512226611 -s 2 -d -1 -p ACK -e 38 -c 2 -a 0 -i 0 -k MAC
r -t 6.512241611 -s 2 -d 2 -p cbr -e 532 -c 2 -a 0 -i 4 -k AGT
r -t 6.512531319 -s 5 -d -1 -p ACK -e 38 -c 2 -a 0 -i 0 -k MAC
+ -t 7.112833524 -s 1 -d -1 -p cbr -e 512 -c 2 -a 0 -i 5 -k AGT 
- -t 7.112833524 -s 1 -d -1 -p cbr -e 512 -c 2 -a 0 -i 5 -k AGT
h -t 7.112833524 -s 1 -d -1 -p cbr -e 512 -c 2 -a 0 -i 5 -k AGT
+ -t 7.112833524 -s 1 -d 5 -p cbr -e 532 -c 2 -a 0 -i 5 -k RTR 
- -t 7.112833524 -s 1 -d 5 -p cbr -e 532 -c 2 -a 0 -i 5 -k RTR
h -t 7.112833524 -s 1 -d 5 -p cbr -e 532 -c 2 -a 0 -i 5 -k RTR
+ -t 7.113088524 -s 1 -d -1 -p RTS -e 44 -c 2 -a 0 -i 0 -k MAC 
- -t 7.113088524 -s 1 -d -1 -p RTS -e 44 -c 2 -a 0 -i 0 -k MAC
h -t 7.113088524 -s 1 -d -1 -p RTS -e 44 -c 2 -a 0 -i 0 -k MAC
r -t 7.113440943 -s 5 -d -1 -p RTS -e 44 -c 2 -a 0 -i 0 -k MAC
+ -t 7.113450943 -s 5 -d -1 -p CTS -e 38 -c 2 -a 0 -i 0 -k MAC 
- -t 7.113450943 -s 5 -d -1 -p CTS -e 38 -c 2 -a 0 -i 0 -k MAC
h -t 7.113450943 -s 5 -d -1 -p CTS -e 38 -c 2 -a 0 -i 0 -k MAC
r -t 7.113755362 -s 1 -d -1 -p CTS -e 38 -c 2 -a 0 -i 0 -k MAC
+ -t 7.113765362 -s 1 -d 5 -p cbr -e 590 -c 2 -a 0 -i 5 -k MAC 
- -t 7.113765362 -s 1 -d 5 -p cbr -e 590 -c 2 -a 0 -i 5 -k MAC
h -t 7.113765362 -s 1 -d 5 -p cbr -e 590 -c 2 -a 0 -i 5 -k MAC
r -t 7.118485781 -s 5 -d 5 -p cbr -e 532 -c 2 -a 0 -i 5 -k MAC
+ -t 7.118495781 -s 5 -d -1 -p ACK -e 38 -c 2 -a 0 -i 0 -k MAC 
- -t 7.118495781 -s 5 -d -1 -p ACK -e 38 -c 2 -a 0 -i 0 -k MAC
h -t 7.118495781 -s 5 -d -1 -p ACK -e 38 -c 2 -a 0 -i 0 -k MAC
+ -t 7.118510781 -s 5 -d 2 -p cbr -e 532 -c 2 -a 0 -i 5 -k RTR 
- -t 7.118510781 -s 5 -d 2 -p cbr -e 532 -c 2 -a 0 -i 5 -k RTR
h -t 7.118510781 -s 5 -d 2 -p cbr -e 532 -c 2 -a 0 -i 5 -k RTR
r -t 7.118800199 -s 1 -d -1 -p ACK -e 38 -c 2 -a 0 -i 0 -k MAC
+ -t 7.119129781 -s 5 -d -1 -p RTS -e 44 -c 2 -a 0 -i 0 -k MAC 
- -t 7.119129781 -s 5 -d -1 -p RTS -e 44 -c 2 -a 0 -i 0 -k MAC
h -t 7.119129781 -s 5 -d -1 -p RTS -e 44 -c 2 -a 0 -i 0 -k MAC
r -t 7.119482479 -s 2 -d -1 -p RTS -e 44 -c 2 -a 0 -i 0 -k MAC
+ -t 7.119492479 -s 2 -d -1 -p CTS -e 38 -c 2 -a 0 -i 0 -k MAC 
- -t 7.119492479 -s 2 -d -1 -p CTS -e 38 -c 2 -a 0 -i 0 -k MAC
h -t 7.119492479 -s 2 -d -1 -p CTS -e 38 -c 2 -a 0 -i 0 -k MAC
r -t 7.119797178 -s 5 -d -1 -p CTS -e 38 -c 2 -a 0 -i 0 -k MAC
+ -t 7.119807178 -s 5 -d 2 -p cbr -e 590 -c 2 -a 0 -i 5 -k MAC 
- -t 7.119807178 -s 5 -d 2 -p cbr -e 590 -c 2 -a 0 -i 5 -k MAC
h -t 7.119807178 -s 5 -d 2 -p cbr -e 590 -c 2 -a 0 -i 5 -k MAC
r -t 7.124527876 -s 2 -d 2 -p cbr -e 532 -c 2 -a 0 -i 5 -k MAC
+ -t 7.124537876 -s 2 -d -1 -p ACK -e 38 -c 2 -a 0 -i 0 -k MAC 
- -t 7.124537876 -s 2 -d -1 -p ACK -e 38 -c 2 -a 0 -i 0 -k MAC
h -t 7.124537876 -s 2 -d -1 -p ACK -e 38 -c 2 -a 0 -i 0 -k MAC
r -t 7.124552876 -s 2 -d 2 -p cbr -e 532 -c 2 -a 0 -i 5 -k AGT
r -t 7.124842575 -s 5 -d -1 -p ACK -e 38 -c 2 -a 0 -i 0 -k MAC
+ -t 7.735937020 -s 1 -d -1 -p cbr -e 512 -c 2 -a 0 -i 6 -k AGT 
- -t 7.735937020 -s 1 -d -1 -p cbr -e 512 -c 2 -a 0 -i 6 -k AGT
h -t 7.735937020 -s 1 -d -1 -p cbr -e 512 -c 2 -a 0 -i 6 -k AGT
+ -t 7.735937020 -s 1 -d 5 -p cbr -e 532 -c 2 -a 0 -i 6 -k RTR 
- -t 7.735937020 -s 1 -d 5 -p cbr -e 532 -c 2 -a 0 -i 6 -k RTR
h -t 7.735937020 -s 1 -d 5 -p cbr -e 532 -c 2 -a 0 -i 6 -k RTR
+ -t 7.736332020 -s 1 -d -1 -p RTS -e 44 -c 2 -a 0 -i 0 -k MAC 
- -t 7.736332020 -s 1 -d -1 -p RTS -e 44 -c 2 -a 0 -i 0 -k MAC
h -t 7.736332020 -s 1 -d -1 -p RTS -e 44 -c 2 -a 0 -i 0 -k MAC
r -t 7.736684432 -s 5 -d -1 -p RTS -e 44 -c 2 -a 0 -i 0 -k MAC
+ -t 7.736694432 -s 5 -d -1 -p CTS -e 38 -c 2 -a 0 -i 0 -k MAC 
- -t 7.736694432 -s 5 -d -1 -p CTS -e 38 -c 2 -a 0 -i 0 -k MAC
h -t 7.736694432 -s 5 -d -1 -p CTS -e 38 -c 2 -a 0 -i 0 -k MAC
r -t 7.736998844 -s 1 -d -1 -p CTS -e 38 -c 2 -a 0 -i 0 -k MAC
+ -t 7.737008844 -s 1 -d 5 -p cbr -e 590 -c 2 -a 0 -i 6 -k MAC 
- -t 7.737008844 -s 1 -d 5 -p cbr -e 590 -c 2 -a 0 -i 6 -k MAC
h -t 7.737008844 -s 1 -d 5 -p cbr -e 590 -c 2 -a 0 -i 6 -k MAC
r -t 7.741729257 -s 5 -d 5 -p cbr -e 532 -c 2 -a 0 -i 6 -k MAC
+ -t 7.741739257 -s 5 -d -1 -p ACK -e 38 -c 2 -a 0 -i 0 -k MAC 
- -t 7.741739257 -s 5 -d -1 -p ACK -e 38 -c 2 -a 0 -i 0 -k MAC
h -t 7.741739257 -s 5 -d -1 -p ACK -e 38 -c 2 -a 0 -i 0 -k MAC
+ -t 7.741754257 -s 5 -d 2 -p cbr -e 532 -c 2 -a 0 -i 6 -k RTR 
- -t 7.741754257 -s 5 -d 2 -p cbr -e 532 -c 2 -a 0 -i 6 -k RTR
h -t 7.741754257 -s 5 -d 2 -p cbr -e 532 -c 2 -a 0 -i 6 -k RTR
r -t 7.742043669 -s 1 -d -1 -p ACK -e 38 -c 2 -a 0 -i 0 -k MAC
+ -t 7.742253257 -s 5 -d -1 -p RTS -e 44 -c 2 -a 0 -i 0 -k MAC 
- -t 7.742253257 -s 5 -d -1 -p RTS -e 44 -c 2 -a 0 -i 0 -k MAC
h -t 7.742253257 -s 5 -d -1 -p RTS -e 44 -c 2 -a 0 -i 0 -k MAC
r -t 7.742605947 -s 2 -d -1 -p RTS -e 44 -c 2 -a 0 -i 0 -k MAC
+ -t 7.742615947 -s 2 -d -1 -p CTS -e 38 -c 2 -a 0 -i 0 -k MAC 
- -t 7.742615947 -s 2 -d -1 -p CTS -e 38 -c 2 -a 0 -i 0 -k MAC
h -t 7.742615947 -s 2 -d -1 -p CTS -e 38 -c 2 -a 0 -i 0 -k MAC
r -t 7.742920638 -s 5 -d -1 -p CTS -e 38 -c 2 -a 0 -i 0 -k MAC
+ -t 7.742930638 -s 5 -d 2 -p cbr -e 590 -c 2 -a 0 -i 6 -k MAC 
- -t 7.742930638 -s 5 -d 2 -p cbr -e 590 -c 2 -a 0 -i 6 -k MAC
h -t 7.742930638 -s 5 -d 2 -p cbr -e 590 -c 2 -a 0 -i 6 -k MAC
r -t 7.747651329 -s 2 -d 2 -p cbr -e 532 -c 2 -a 0 -i 6 -k MAC
+ -t 7.747661329 -s 2 -d -1 -p ACK -e 38 -c 2 -a 0 -i 0 -k MAC 
- -t 7.747661329 -s 2 -d -1 -p ACK -e 38 -c 2 -a 0 -i 0 -k MAC
h -t 7.747661329 -s 2 -d -1 -p ACK -e 38 -c 2 -a 0 -i 0 -k MAC
r -t 7.747676329 -s 2 -d 2 -p cbr -e 532 -c 2 -a 0 -i 6 -k AGT
r -t 7.747966019 -s 5 -d -1 -p ACK -e 38 -c 2 -a 0 -i 0 -k MAC
+ -t 9.112592693 -s 1 -d -1 -p cbr -e 512 -c 2 -a 0 -i 7 -k AGT 
- -t 9.112592693 -s 1 -d -1 -p cbr -e 512 -c 2 -a 0 -i 7 -k AGT
h -t 9.112592693 -s 1 -d -1 -p cbr -e 512 -c 2 -a 0 -i 7 -k AGT
+ -t 9.112592693 -s 1 -d 5 -p cbr -e 532 -c 2 -a 0 -i 7 -k RTR 
- -t 9.112592693 -s 1 -d 5 -p cbr -e 532 -c 2 -a 0 -i 7 -k RTR