M 0.00000 0 (154.42, 73.84, 0.00), (461.02, 489.71), 9.83
M 0.00000 1 (160.24, 49.29, 0.00), (216.41, 228.26), 6.51
M 0.00000 2 (337.23, 394.53, 0.00), (73.66, 215.08), 19.88
M 0.00000 3 (170.18, 0.43, 0.00), (121.61, 36.25), 5.80
M 0.00000 4 (424.24, 461.28, 0.00), (11.44, 195.20), 5.64
s 2.556838879 _1_ AGT  --- 0 cbr 512 [0 0 0 0] ------- [1:0 2:0 32 0] [0] 0 16777215
r 2.556838879 _1_ RTR  --- 0 cbr 512 [0 0 0 0] ------- [1:0 2:0 32 0] [0] 0 16777215
s 2.556838879 _1_ RTR  --- 0 AODV 48 [0 0 0 0] ------- [1:255 -1:255 30 0] [0x2 1 1 [2 0] [1 4]] (REQUEST)
s 2.556953879 _1_ MAC  --- 0 AODV 106 [0 ffffffff 1 800] ------- [1:255 -1:255 30 0] [0x2 1 1 [2 0] [1 4]] (REQUEST)
r 2.557801976 _0_ MAC  --- 0 AODV 48 [0 ffffffff 1 800] ------- [1:255 -1:255 30 0] [0x2 1 1 [2 0] [1 4]] (REQUEST)
r 2.557802067 _3_ MAC  --- 0 AODV 48 [0 ffffffff 1 800] ------- [1:255 -1:255 30 0] [0x2 1 1 [2 0] [1 4]] (REQUEST)
r 2.557802298 _6_ MAC  --- 0 AODV 48 [0 ffffffff 1 800] ------- [1:255 -1:255 30 0] [0x2 1 1 [2 0] [1 4]] (REQUEST)
r 2.557802354 _5_ MAC  --- 0 AODV 48 [0 ffffffff 1 800] ------- [1:255 -1:255 30 0] [0x2 1 1 [2 0] [1 4]] (REQUEST)
r 2.557826976 _0_ RTR  --- 0 AODV 48 [0 ffffffff 1 800] ------- [1:255 -1:255 30 0] [0x2 1 1 [2 0] [1 4]] (REQUEST)
r 2.557827067 _3_ RTR  --- 0 AODV 48 [0 ffffffff 1 800] ------- [1:255 -1:255 30 0] [0x2 1 1 [2 0] [1 4]] (REQUEST)
r 2.557827298 _6_ RTR  --- 0 AODV 48 [0 ffffffff 1 800] ------- [1:255 -1:255 30 0] [0x2 1 1 [2 0] [1 4]] (REQUEST)
r 2.557827354 _5_ RTR  --- 0 AODV 48 [0 ffffffff 1 800] ------- [1:255 -1:255 30 0] [0x2 1 1 [2 0] [1 4]] (REQUEST)
s 2.558708203 _0_ RTR  --- 0 AODV 48 [0 ffffffff 1 800] ------- [0:255 -1:255 29 0] [0x2 2 1 [2 0] [1 4]] (REQUEST)
s 2.558983203 _0_ MAC  --- 0 AODV 106 [0 ffffffff 0 800] ------- [0:255 -1:255 29 0] [0x2 2 1 [2 0] [1 4]] (REQUEST)
r 2.559831300 _1_ MAC  --- 0 AODV 48 [0 ffffffff 0 800] ------- [0:255 -1:255 29 0] [0x2 2 1 [2 0] [1 4]] (REQUEST)
r 2.559831488 _3_ MAC  --- 0 AODV 48 [0 ffffffff 0 800] ------- [0:255 -1:255 29 0] [0x2 2 1 [2 0] [1 4]] (REQUEST)
r 2.559831578 _6_ MAC  --- 0 AODV 48 [0 ffffffff 0 800] ------- [0:255 -1:255 29 0] [0x2 2 1 [2 0] [1 4]] (REQUEST)
r 2.559831637 _5_ MAC  --- 0 AODV 48 [0 ffffffff 0 800] ------- [0:255 -1:255 29 0] [0x2 2 1 [2 0] [1 4]] (REQUEST)
r 2.559856300 _1_ RTR  --- 0 AODV 48 [0 ffffffff 0 800] ------- [0:255 -1:255 29 0] [0x2 2 1 [2 0] [1 4]] (REQUEST)
r 2.559856488 _3_ RTR  --- 0 AODV 48 [0 ffffffff 0 800] ------- [0:255 -1:255 29 0] [0x2 2 1 [2 0] [1 4]] (REQUEST)
r 2.559856578 _6_ RTR  --- 0 AODV 48 [0 ffffffff 0 800] ------- [0:255 -1:255 29 0] [0x2 2 1 [2 0] [1 4]] (REQUEST)
r 2.559856637 _5_ RTR  --- 0 AODV 48 [0 ffffffff 0 800] ------- [0:255 -1:255 29 0] [0x2 2 1 [2 0] [1 4]] (REQUEST)
s 2.560956972 _5_ RTR  --- 0 AODV 48 [0 ffffffff 1 800] ------- [5:255 -1:255 29 0] [0x2 2 1 [2 0] [1 4]] (REQUEST)
s 2.561391972 _5_ MAC  --- 0 AODV 106 [0 ffffffff 5 800] ------- [5:255 -1:255 29 0] [0x2 2 1 [2 0] [1 4]] (REQUEST)
s 2.562238800 _3_ RTR  --- 0 AODV 48 [0 ffffffff 1 800] ------- [3:255 -1:255 29 0] [0x2 2 1 [2 0] [1 4]] (REQUEST)
r 2.562240406 _0_ MAC  --- 0 AODV 48 [0 ffffffff 5 800] ------- [5:255 -1:255 29 0] [0x2 2 1 [2 0] [1 4]] (REQUEST)
r 2.562240447 _1_ MAC  --- 0 AODV 48 [0 ffffffff 5 800] ------- [5:255 -1:255 29 0] [0x2 2 1 [2 0] [1 4]] (REQUEST)
r 2.562240563 _3_ MAC  --- 0 AODV 48 [0 ffffffff 5 800] ------- [5:255 -1:255 29 0] [0x2 2 1 [2 0] [1 4]] (REQUEST)
r 2.562240733 _6_ MAC  --- 0 AODV 48 [0 ffffffff 5 800] ------- [5:255 -1:255 29 0] [0x2 2 1 [2 0] [1 4]] (REQUEST)
r 2.562240792 _2_ MAC  --- 0 AODV 48 [0 ffffffff 5 800] ------- [5:255 -1:255 29 0] [0x2 2 1 [2 0] [1 4]] (REQUEST)
r 2.562265406 _0_ RTR  --- 0 AODV 48 [0 ffffffff 5 800] ------- [5:255 -1:255 29 0] [0x2 2 1 [2 0] [1 4]] (REQUEST)
r 2.562265447 _1_ RTR  --- 0 AODV 48 [0 ffffffff 5 800] ------- [5:255 -1:255 29 0] [0x2 2 1 [2 0] [1 4]] (REQUEST)
r 2.562265563 _3_ RTR  --- 0 AODV 48 [0 ffffffff 5 800] ------- [5:255 -1:255 29 0] [0x2 2 1 [2 0] [1 4]] (REQUEST)
r 2.562265733 _6_ RTR  --- 0 AODV 48 [0 ffffffff 5 800] ------- [5:255 -1:255 29 0] [0x2 2 1 [2 0] [1 4]] (REQUEST)
r 2.562265792 _2_ RTR  --- 0 AODV 48 [0 ffffffff 5 800] ------- [5:255 -1:255 29 0] [0x2 2 1 [2 0] [1 4]] (REQUEST)
s 2.562265792 _2_ RTR  --- 0 AODV 44 [0 0 0 0] ------- [2:255 1:255 30 5] [0x4 1 [2 4] 10.000000] (REPLY)
s 2.562360792 _2_ MAC  --- 0 ARP 86 [0 ffffffff 2 806] ------- [REQUEST 2/2 0/5]
r 2.563049279 _4_ MAC  --- 0 ARP 28 [0 ffffffff 2 806] ------- [REQUEST 2/2 0/5]
r 2.563049612 _5_ MAC  --- 0 ARP 28 [0 ffffffff 2 806] ------- [REQUEST 2/2 0/5]
s 2.563299612 _5_ MAC  --- 0 RTS 44 [52e 2 5 0] 
r 2.563652432 _2_ MAC  --- 0 RTS 44 [52e 2 5 0] 
s 2.563662432 _2_ MAC  --- 0 CTS 38 [3f4 5 0 0] 
r 2.563967252 _5_ MAC  --- 0 CTS 38 [3f4 5 0 0] 
s 2.563977252 _5_ MAC  --- 0 ARP 86 [13a 2 5 806] ------- [REPLY 5/5 2/2]
r 2.564666072 _2_ MAC  --- 0 ARP 28 [13a 2 5 806] ------- [REPLY 5/5 2/2]
s 2.564676072 _2_ MAC  --- 0 ACK 38 [0 5 0 0] 
r 2.564980892 _5_ MAC  --- 0 ACK 38 [0 5 0 0] 
s 2.565370072 _2_ MAC  --- 0 RTS 44 [5ae 5 2 0] 
r 2.565722892 _5_ MAC  --- 0 RTS 44 [5ae 5 2 0] 
s 2.565732892 _5_ MAC  --- 0 CTS 38 [474 2 0 0] 
s 2.565818853 _6_ RTR  --- 0 AODV 48 [0 ffffffff 1 800] ------- [6:255 -1:255 29 0] [0x2 2 1 [2 0] [1 4]] (REQUEST)
r 2.566037712 _2_ MAC  --- 0 CTS 38 [474 2 0 0] 
s 2.566047712 _2_ MAC  --- 0 AODV 102 [13a 5 2 800] ------- [2:255 1:255 30 5] [0x4 1 [2 4] 10.000000] (REPLY)
r 2.566864532 _5_ MAC  --- 0 AODV 44 [13a 5 2 800] ------- [2:255 1:255 30 5] [0x4 1 [2 4] 10.000000] (REPLY)
s 2.566874532 _5_ MAC  --- 0 ACK 38 [0 2 0 0] 
r 2.566889532 _5_ RTR  --- 0 AODV 44 [13a 5 2 800] ------- [2:255 1:255 30 5] [0x4 1 [2 4] 10.000000] (REPLY)
f 2.566889532 _5_ RTR  --- 0 AODV 44 [13a 5 2 800] ------- [2:255 1:255 29 1] [0x4 2 [2 4] 10.000000] (REPLY)
r 2.567179352 _2_ MAC  --- 0 ACK 38 [0 2 0 0] 
s 2.567468532 _5_ MAC  --- 0 ARP 86 [0 ffffffff 5 806] ------- [REQUEST 5/5 0/1]
r 2.568156965 _0_ MAC  --- 0 ARP 28 [0 ffffffff 5 806] ------- [REQUEST 5/5 0/1]
r 2.568157007 _1_ MAC  --- 0 ARP 28 [0 ffffffff 5 806] ------- [REQUEST 5/5 0/1]
r 2.568157123 _3_ MAC  --- 0 ARP 28 [0 ffffffff 5 806] ------- [REQUEST 5/5 0/1]
r 2.568157293 _6_ MAC  --- 0 ARP 28 [0 ffffffff 5 806] ------- [REQUEST 5/5 0/1]
r 2.568157352 _2_ MAC  --- 0 ARP 28 [0 ffffffff 5 806] ------- [REQUEST 5/5 0/1]
s 2.568227123 _3_ MAC  --- 0 AODV 106 [0 ffffffff 3 800] ------- [3:255 -1:255 29 0] [0x2 2 1 [2 0] [1 4]] (REQUEST)
r 2.569075311 _1_ MAC  --- 0 AODV 48 [0 ffffffff 3 800] ------- [3:255 -1:255 29 0] [0x2 2 1 [2 0] [1 4]] (REQUEST)
r 2.569075409 _0_ MAC  --- 0 AODV 48 [0 ffffffff 3 800] ------- [3:255 -1:255 29 0] [0x2 2 1 [2 0] [1 4]] (REQUEST)
r 2.569075670 _6_ MAC  --- 0 AODV 48 [0 ffffffff 3 800] ------- [3:255 -1:255 29 0] [0x2 2 1 [2 0] [1 4]] (REQUEST)
r 2.569075715 _5_ MAC  --- 0 AODV 48 [0 ffffffff 3 800] ------- [3:255 -1:255 29 0] [0x2 2 1 [2 0] [1 4]] (REQUEST)
r 2.569100311 _1_ RTR  --- 0 AODV 48 [0 ffffffff 3 800] ------- [3:255 -1:255 29 0] [0x2 2 1 [2 0] [1 4]] (REQUEST)
r 2.569100409 _0_ RTR  --- 0 AODV 48 [0 ffffffff 3 800] ------- [3:255 -1:255 29 0] [0x2 2 1 [2 0] [1 4]] (REQUEST)
r 2.569100670 _6_ RTR  --- 0 AODV 48 [0 ffffffff 3 800] ------- [3:255 -1:255 29 0] [0x2 2 1 [2 0] [1 4]] (REQUEST)
r 2.569100715 _5_ RTR  --- 0 AODV 48 [0 ffffffff 3 800] ------- [3:255 -1:255 29 0] [0x2 2 1 [2 0] [1 4]] (REQUEST)
s 2.569285670 _6_ MAC  --- 0 AODV 106 [0 ffffffff 6 800] ------- [6:255 -1:255 29 0] [0x2 2 1 [2 0] [1 4]] (REQUEST)
r 2.570134046 _0_ MAC  --- 0 AODV 48 [0 ffffffff 6 800] ------- [6:255 -1:255 29 0] [0x2 2 1 [2 0] [1 4]] (REQUEST)
r 2.570134090 _1_ MAC  --- 0 AODV 48 [0 ffffffff 6 800] ------- [6:255 -1:255 29 0] [0x2 2 1 [2 0] [1 4]] (REQUEST)
r 2.570134217 _3_ MAC  --- 0 AODV 48 [0 ffffffff 6 800] ------- [6:255 -1:255 29 0] [0x2 2 1 [2 0] [1 4]] (REQUEST)
r 2.570134431 _5_ MAC  --- 0 AODV 48 [0 ffffffff 6 800] ------- [6:255 -1:255 29 0] [0x2 2 1 [2 0] [1 4]] (REQUEST)
r 2.570159046 _0_ RTR  --- 0 AODV 48 [0 ffffffff 6 800] ------- [6:255 -1:255 29 0] [0x2 2 1 [2 0] [1 4]] (REQUEST)
r 2.570159090 _1_ RTR  --- 0 AODV 48 [0 ffffffff 6 800] ------- [6:255 -1:255 29 0] [0x2 2 1 [2 0] [1 4]] (REQUEST)
r 2.570159217 _3_ RTR  --- 0 AODV 48 [0 ffffffff 6 800] ------- [6:255 -1:255 29 0] [0x2 2 1 [2 0] [1 4]] (REQUEST)
r 2.570159431 _5_ RTR  --- 0 AODV 48 [0 ffffffff 6 800] ------- [6:255 -1:255 29 0] [0x2 2 1 [2 0] [1 4]] (REQUEST)
s 2.570364090 _1_ MAC  --- 0 RTS 44 [52e 5 1 0] 
r 2.570716565 _5_ MAC  --- 0 RTS 44 [52e 5 1 0] 
s 2.570726565 _5_ MAC  --- 0 CTS 38 [3f4 1 0 0] 
r 2.571031040 _1_ MAC  --- 0 CTS 38 [3f4 1 0 0] 
s 2.571041040 _1_ MAC  --- 0 ARP 86 [13a 5 1 806] ------- [REPLY 1/1 5/5]
r 2.571729516 _5_ MAC  --- 0 ARP 28 [13a 5 1 806] ------- [REPLY 1/1 5/5]
s 2.571739516 _5_ MAC  --- 0 ACK 38 [0 1 0 0] 
r 2.572043991 _1_ MAC  --- 0 ACK 38 [0 1 0 0] 
s 2.572213516 _5_ MAC  --- 0 RTS 44 [5ae 1 5 0] 
r 2.572565991 _1_ MAC  --- 0 RTS 44 [5ae 1 5 0] 
s 2.572575991 _1_ MAC  --- 0 CTS 38 [474 5 0 0] 
r 2.572880466 _5_ MAC  --- 0 CTS 38 [474 5 0 0] 
s 2.572890466 _5_ MAC  --- 0 AODV 102 [13a 1 5 800] ------- [2:255 1:255 29 1] [0x4 2 [2 4] 10.000000] (REPLY)
r 2.573706941 _1_ MAC  --- 0 AODV 44 [13a 1 5 800] ------- [2:255 1:255 29 1] [0x4 2 [2 4] 10.000000] (REPLY)
s 2.573716941 _1_ MAC  --- 0 ACK 38 [0 5 0 0] 
r 2.573731941 _1_ RTR  --- 0 AODV 44 [13a 1 5 800] ------- [2:255 1:255 29 1] [0x4 2 [2 4] 10.000000] (REPLY)
s 2.573731941 _1_ RTR  --- 0 cbr 532 [0 0 0 0] ------- [1:0 2:0 30 5] [0] 0 16777215
r 2.574021417 _5_ MAC  --- 0 ACK 38 [0 5 0 0] 
s 2.574190941 _1_ MAC  --- 0 RTS 44 [14ee 5 1 0] 
r 2.574543417 _5_ MAC  --- 0 RTS 44 [14ee 5 1 0] 
s 2.574553417 _5_ MAC  --- 0 CTS 38 [13b4 1 0 0] 
r 2.574857892 _1_ MAC  --- 0 CTS 38 [13b4 1 0 0] 
s 2.574867892 _1_ MAC  --- 0 cbr 590 [13a 5 1 800] ------- [1:0 2:0 30 5] [0] 0 16777215
r 2.579588367 _5_ MAC  --- 0 cbr 532 [13a 5 1 800] ------- [1:0 2:0 30 5] [0] 1 16777215
s 2.579598367 _5_ MAC  --- 0 ACK 38 [0 1 0 0] 
r 2.579613367 _5_ RTR  --- 0 cbr 532 [13a 5 1 800] ------- [1:0 2:0 30 5] [0] 1 16777215
f 2.579613367 _5_ RTR  --- 0 cbr 532 [13a 5 1 800] ------- [1:0 2:0 29 2] [0] 1 16777215
r 2.579902842 _1_ MAC  --- 0 ACK 38 [0 1 0 0] 
s 2.580192367 _5_ MAC  --- 0 RTS 44 [14ee 2 5 0] 
r 2.580545187 _2_ MAC  --- 0 RTS 44 [14ee 2 5 0] 
s 2.580555187 _2_ MAC  --- 0 CTS 38 [13b4 5 0 0] 
r 2.580860006 _5_ MAC  --- 0 CTS 38 [13b4 5 0 0] 
s 2.580870006 _5_ MAC  --- 0 cbr 590 [13a 2 5 800] ------- [1:0 2:0 29 2] [0] 1 16777215
r 2.585590825 _2_ MAC  --- 0 cbr 532 [13a 2 5 800] ------- [1:0 2:0 29 2] [0] 2 16777215
s 2.585600825 _2_ MAC  --- 0 ACK 38 [0 5 0 0] 
r 2.585615825 _2_ AGT  --- 0 cbr 532 [13a 2 5 800] ------- [1:0 2:0 29 2] [0] 2 16777215
r 2.585905644 _5_ MAC  --- 0 ACK 38 [0 5 0 0] 
s 3.057178456 _1_ AGT  --- 1 cbr 512 [0 0 0 0] ------- [1:0 2:0 32 0] [1] 0 16777215
r 3.057178456 _1_ RTR  --- 1 cbr 512 [0 0 0 0] ------- [1:0 2:0 32 0] [1] 0 16777215
s 3.057178456 _1_ RTR  --- 1 cbr 532 [0 0 0 0] ------- [1:0 2:0 30 5] [1] 0 16777215
s 3.057653456 _1_ MAC  --- 0 RTS 44 [14ee 5 1 0] 
r 3.058005925 _5_ MAC  --- 0 RTS 44 [14ee 5 1 0] 
s 3.058015925 _5_ MAC  --- 0 CTS 38 [13b4 1 0 0] 
r 3.058320393 _1_ MAC  --- 0 CTS 38 [13b4 1 0 0] 
s 3.058330393 _1_ MAC  --- 1 cbr 590 [13a 5 1 800] ------- [1:0 2:0 30 5] [1] 0 16777215
r 3.063050862 _5_ MAC  --- 1 cbr 532 [13a 5 1 800] ------- [1:0 2:0 30 5] [1] 1 16777215
s 3.063060862 _5_ MAC  --- 0 ACK 38 [0 1 0 0] 
r 3.063075862 _5_ RTR  --- 1 cbr 532 [13a 5 1 800] ------- [1:0 2:0 30 5] [1] 1 16777215
f 3.063075862 _5_ RTR  --- 1 cbr 532 [13a 5 1 800] ------- [1:0 2:0 29 2] [1] 1 16777215
r 3.063365330 _1_ MAC  --- 0 ACK 38 [0 1 0 0] 
s 3.063954862 _5_ MAC  --- 0 RTS 44 [14ee 2 5 0] 
r 3.064307664 _2_ MAC  --- 0 RTS 44 [14ee 2 5 0] 
s 3.064317664 _2_ MAC  --- 0 CTS 38 [13b4 5 0 0] 
r 3.064622466 _5_ MAC  --- 0 CTS 38 [13b4 5 0 0] 
s 3.064632466 _5_ MAC  --- 1 cbr 590 [13a 2 5 800] ------- [1:0 2:0 29 2] [1] 1 16777215
r 3.069353268 _2_ MAC  --- 1 cbr 532 [13a 2 5 800] ------- [1:0 2:0 29 2] [1] 2 16777215
s 3.069363268 _2_ MAC  --- 0 ACK 38 [0 5 0 0] 
r 3.069378268 _2_ AGT  --- 1 cbr 532 [13a 2 5 800] ------- [1:0 2:0 29 2] [1] 2 16777215
r 3.069668069 _5_ MAC  --- 0 ACK 38 [0 5 0 0] 
s 4.419245737 _1_ AGT  --- 2 cbr 512 [0 0 0 0] ------- [1:0 2:0 32 0] [2] 0 16777215
r 4.419245737 _1_ RTR  --- 2 cbr 512 [0 0 0 0] ------- [1:0 2:0 32 0] [2] 0 16777215
s 4.419245737 _1_ RTR  --- 2 cbr 532 [0 0 0 0] ------- [1:0 2:0 30 5] [2] 0 16777215
s 4.419680737 _1_ MAC  --- 0 RTS 44 [14ee 5 1 0] 
r 4.420033187 _5_ MAC  --- 0 RTS 44 [14ee 5 1 0] 
s 4.420043187 _5_ MAC  --- 0 CTS 38 [13b4 1 0 0] 
r 4.420347638 _1_ MAC  --- 0 CTS 38 [13b4 1 0 0] 
s 4.420357638 _1_ MAC  --- 2 cbr 590 [13a 5 1 800] ------- [1:0 2:0 30 5] [2] 0 16777215
r 4.425078089 _5_ MAC  --- 2 cbr 532 [13a 5 1 800] ------- [1:0 2:0 30 5] [2] 1 16777215
s 4.425088089 _5_ MAC  --- 0 ACK 38 [0 1 0 0] 
r 4.425103089 _5_ RTR  --- 2 cbr 532 [13a 5 1 800] ------- [1:0 2:0 30 5] [2] 1 16777215
f 4.425103089 _5_ RTR  --- 2 cbr 532 [13a 5 1 800] ------- [1:0 2:0 29 2] [2] 1 16777215
r 4.425392539 _1_ MAC  --- 0 ACK 38 [0 1 0 0] 
s 4.425582089 _5_ MAC  --- 0 RTS 44 [14ee 2 5 0] 
r 4.425934847 _2_ MAC  --- 0 RTS 44 [14ee 2 5 0] 
s 4.425944847 _2_ MAC  --- 0 CTS 38 [13b4 5 0 0] 
r 4.426249605 _5_ MAC  --- 0 CTS 38 [13b4 5 0 0] 
s 4.426259605 _5_ MAC  --- 2 cbr 590 [13a 2 5 800] ------- [1:0 2:0 29 2] [2] 1 16777215
r 4.430980363 _2_ MAC  --- 2 cbr 532 [13a 2 5 800] ------- [1:0 2:0 29 2] [2] 2 16777215
s 4.430990363 _2_ MAC  --- 0 ACK 38 [0 5 0 0] 
r 4.431005363 _2_ AGT  --- 2 cbr 532 [13a 2 5 800] ------- [1:0 2:0 29 2] [2] 2 16777215
r 4.431295122 _5_ MAC  --- 0 ACK 38 [0 5 0 0] 
s 5.596594680 _1_ AGT  --- 3 cbr 512 [0 0 0 0] ------- [1:0 2:0 32 0] [3] 0 2
r 5.596594680 _1_ RTR  --- 3 cbr 512 [0 0 0 0] ------- [1:0 2:0 32 0] [3] 0 2
s 5.596594680 _1_ RTR  --- 3 cbr 532 [0 0 0 0] ------- [1:0 2:0 30 5] [3] 0 2
s 5.596769680 _1_ MAC  --- 0 RTS 44 [14ee 5 1 0] 
r 5.597122116 _5_ MAC  --- 0 RTS 44 [14ee 5 1 0] 
s 5.597132116 _5_ MAC  --- 0 CTS 38 [13b4 1 0 0] 
r 5.597436552 _1_ MAC  --- 0 CTS 38 [13b4 1 0 0] 
s 5.597446552 _1_ MAC  --- 3 cbr 590 [13a 5 1 800] ------- [1:0 2:0 30 5] [3] 0 2
r 5.602166988 _5_ MAC  --- 3 cbr 532 [13a 5 1 800] ------- [1:0 2:0 30 5] [3] 1 2
s 5.602176988 _5_ MAC  --- 0 ACK 38 [0 1 0 0] 
r 5.602191988 _5_ RTR  --- 3 cbr 532 [13a 5 1 800] ------- [1:0 2:0 30 5] [3] 1 2
f 5.602191988 _5_ RTR  --- 3 cbr 532 [13a 5 1 800] ------- [1:0 2:0 29 2] [3] 1 2
r 5.602481424 _1_ MAC  --- 0 ACK 38 [0 1 0 0] 
s 5.603050988 _5_ MAC  --- 0 RTS 44 [14ee 2 5 0] 
r 5.603403716 _2_ MAC  --- 0 RTS 44 [14ee 2 5 0] 
s 5.603413716 _2_ MAC  --- 0 CTS 38 [13b4 5 0 0] 
r 5.603718443 _5_ MAC  --- 0 CTS 38 [13b4 5 0 0] 
s 5.603728443 _5_ MAC  --- 3 cbr 590 [13a 2 5 800] ------- [1:0 2:0 29 2] [3] 1 2
r 5.608449170 _2_ MAC  --- 3 cbr 532 [13a 2 5 800] ------- [1:0 2:0 29 2] [3] 2 2
s 5.608459170 _2_ MAC  --- 0 ACK 38 [0 5 0 0] 
r 5.608474170 _2_ AGT  --- 3 cbr 532 [13a 2 5 800] ------- [1:0 2:0 29 2] [3] 2 2
r 5.608763898 _5_ MAC  --- 0 ACK 38 [0 5 0 0] 
s 6.500802208 _1_ AGT  --- 4 cbr 512 [0 0 0 0] ------- [1:0 2:0 32 0] [4] 0 1
r 6.500802208 _1_ RTR  --- 4 cbr 512 [0 0 0 0] ------- [1:0 2:0 32 0] [4] 0 1
s 6.500802208 _1_ RTR  --- 4 cbr 532 [0 0 0 0] ------- [1:0 2:0 30 5] [4] 0 1
s 6.500937208 _1_ MAC  --- 0 RTS 44 [14ee 5 1 0] 
r 6.501289634 _5_ MAC  --- 0 RTS 44 [14ee 5 1 0] 
s 6.501299634 _5_ MAC  --- 0 CTS 38 [13b4 1 0 0] 
r 6.501604059 _1_ MAC  --- 0 CTS 38 [13b4 1 0 0] 
s 6.501614059 _1_ MAC  --- 4 cbr 590 [13a 5 1 800] ------- [1:0 2:0 30 5] [4] 0 1
r 6.506334485 _5_ MAC  --- 4 cbr 532 [13a 5 1 800] ------- [1:0 2:0 30 5] [4] 1 1
s 6.506344485 _5_ MAC  --- 0 ACK 38 [0 1 0 0] 
r 6.506359485 _5_ RTR  --- 4 cbr 532 [13a 5 1 800] ------- [1:0 2:0 30 5] [4] 1 1
f 6.506359485 _5_ RTR  --- 4 cbr 532 [13a 5 1 800] ------- [1:0 2:0 29 2] [4] 1 1
r 6.506648910 _1_ MAC  --- 0 ACK 38 [0 1 0 0] 
s 6.506818485 _5_ MAC  --- 0 RTS 44 [14ee 2 5 0] 
r 6.507171194 _2_ MAC  --- 0 RTS 44 [14ee 2 5 0] 
s 6.507181194 _2_ MAC  --- 0 CTS 38 [13b4 5 0 0] 
r 6.507485902 _5_ MAC  --- 0 CTS 38 [13b4 5 0 0] 
s 6.507495902 _5_ MAC  --- 4 cbr 590 [13a 2 5 800] ------- [1:0 2:0 29 2] [4] 1 1
r 6.512216611 _2_ MAC  --- 4 cbr 532 [13a 2 5 800] ------- [1:0 2:0 29 2] [4] 2 1
s 6.512226611 _2_ MAC  --- 0 ACK 38 [0 5 0 0] 
r 6.512241611 _2_ AGT  --- 4 cbr 532 [13a 2 5 800] ------- [1:0 2:0 29 2] [4] 2 1
r 6.512531319 _5_ MAC  --- 0 ACK 38 [0 5 0 0] 
s 7.112833524 _1_ AGT  --- 5 cbr 512 [0 0 0 0] ------- [1:0 2:0 32 0] [5] 0 1
r 7.112833524 _1_ RTR  --- 5 cbr 512 [0 0 0 0] ------- [1:0 2:0 32 0] [5] 0 1
s 7.112833524 _1_ RTR  --- 5 cbr 532 [0 0 0 0] ------- [1:0 2:0 30 5] [5] 0 1
s 7.113088524 _1_ MAC  --- 0 RTS 44 [14ee 5 1 0] 
r 7.113440943 _5_ MAC  --- 0 RTS 44 [14ee 5 1 0] 
s 7.113450943 _5_ MAC  --- 0 CTS 38 [13b4 1 0 0] 
r 7.113755362 _1_ MAC  --- 0 CTS 38 [13b4 1 0 0] 
s 7.113765362 _1_ MAC  --- 5 cbr 590 [13a 5 1 800] ------- [1:0 2:0 30 5] [5] 0 1
r 7.118485781 _5_ MAC  --- 5 cbr 532 [13a 5 1 800] ------- [1:0 2:0 30 5] [5] 1 1
s 7.118495781 _5_ MAC  --- 0 ACK 38 [0 1 0 0] 
r 7.118510781 _5_ RTR  --- 5 cbr 532 [13a 5 1 800] ------- [1:0 2:0 30 5] [5] 1 1
f 7.118510781 _5_ RTR  --- 5 cbr 532 [13a 5 1 800] ------- [1:0 2:0 29 2] [5] 1 1
r 7.118800199 _1_ MAC  --- 0 ACK 38 [0 1 0 0] 
s 7.119129781 _5_ MAC  --- 0 RTS 44 [14ee 2 5 0] 
r 7.119482479 _2_ MAC  --- 0 RTS 44 [14ee 2 5 0] 
s 7.119492479 _2_ MAC  --- 0 CTS 38 [13b4 5 0 0] 
r 7.119797178 _5_ MAC  --- 0 CTS 38 [13b4 5 0 0] 
s 7.119807178 _5_ MAC  --- 5 cbr 590 [13a 2 5 800] ------- [1:0 2:0 29 2] [5] 1 1
r 7.124527876 _2_ MAC  --- 5 cbr 532 [13a 2 5 800] ------- [1:0 2:0 29 2] [5] 2 1
s 7.124537876 _2_ MAC  --- 0 ACK 38 [0 5 0 0] 
r 7.124552876 _2_ AGT  --- 5 cbr 532 [13a 2 5 800] ------- [1:0 2:0 29 2] [5] 2 1
r 7.124842575 _5_ MAC  --- 0 ACK 38 [0 5 0 0] 
s 7.735937020 _1_ AGT  --- 6 cbr 512 [0 0 0 0] ------- [1:0 2:0 32 0] [6] 0 1
r 7.735937020 _1_ RTR  --- 6 cbr 512 [0 0 0 0] ------- [1:0 2:0 32 0] [6] 0 1
s 7.735937020 _1_ RTR  --- 6 cbr 532 [0 0 0 0] ------- [1:0 2:0 30 5] [6] 0 1
s 7.736332020 _1_ MAC  --- 0 RTS 44 [14ee 5 1 0] 
r 7.736684432 _5_ MAC  --- 0 RTS 44 [14ee 5 1 0] 
s 7.736694432 _5_ MAC  --- 0 CTS 38 [13b4 1 0 0] 
r 7.736998844 _1_ MAC  --- 0 CTS 38 [13b4 1 0 0] 
s 7.737008844 _1_ MAC  --- 6 cbr 590 [13a 5 1 800] ------- [1:0 2:0 30 5] [6] 0 1
r 7.741729257 _5_ MAC  --- 6 cbr 532 [13a 5 1 800] ------- [1:0 2:0 30 5] [6] 1 1
s 7.741739257 _5_ MAC  --- 0 ACK 38 [0 1 0 0] 
r 7.741754257 _5_ RTR  --- 6 cbr 532 [13a 5 1 800] ------- [1:0 2:0 30 5] [6] 1 1
f 7.741754257 _5_ RTR  --- 6 cbr 532 [13a 5 1 800] ------- [1:0 2:0 29 2] [6] 1 1
r 7.742043669 _1_ MAC  --- 0 ACK 38 [0 1 0 0] 
s 7.742253257 _5_ MAC  --- 0 RTS 44 [14ee 2 5 0] 
r 7.742605947 _2_ MAC  --- 0 RTS 44 [14ee 2 5 0] 
s 7.742615947 _2_ MAC  --- 0 CTS 38 [13b4 5 0 0] 
r 7.742920638 _5_ MAC  --- 0 CTS 38 [13b4 5 0 0] 
s 7.742930638 _5_ MAC  --- 6 cbr 590 [13a 2 5 800] ------- [1:0 2:0 29 2] [6] 1 1
r 7.747651329 _2_ MAC  --- 6 cbr 532 [13a 2 5 800] ------- [1:0 2:0 29 2] [6] 2 1
s 7.747661329 _2_ MAC  --- 0 ACK 38 [0 5 0 0] 
r 7.747676329 _2_ AGT  --- 6 cbr 532 [13a 2 5 800] ------- [1:0 2:0 29 2] [6] 2 1
r 7.747966019 _5_ MAC  --- 0 ACK 38 [0 5 0 0] 
s 9.112592693 _1_ AGT  --- 7 cbr 512 [0 0 0 0] ------- [1:0 2:0 32 0] [7] 0 1
r 9.112592693 _1_ RTR  --- 7 cbr 512 [0 0 0 0] ------- [1:0 2:0 32 0] [7] 0 1
s 9.112592693 _1_ RTR  --- 7 cbr 532 [0 0 0 0] ------- [1:0 2:0 30 5] [7] 0 1
s 9.112667693 _1_ MAC  --- 0 RTS 44 [14ee 5 1 0] 
r 9.113020092 _5_ MAC  --- 0 RTS 44 [14ee 5 1 0] 
s 9.113030092 _5_ MAC  --- 0 CTS 38 [13b4 1 0 0] 
r 9.113334492 _1_ MAC  --- 0 CTS 38 [13b4 1 0 0] 
s 9.113344492 _1_ MAC  --- 7 cbr 590 [13a 5 1 800] ------- [1:0 2:0 30 5] [7] 0 1
r 9.118064891 _5_ MAC  --- 7 cbr 532 [13a 5 1 800] ------- [1:0 2:0 30 5] [7] 1 1
s 9.118074891 _5_ MAC  --- 0 ACK 38 [0 1 0 0] 
r 9.118089891 _5_ RTR  --- 7 cbr 532 [13a 5 1 800] ------- [1:0 2:0 30 5] [7] 1 1
f 9.118089891 _5_ RTR  --- 7 cbr 532 [13a 5 1 800] ------- [1:0 2:0 29 2] [7] 1 1
r 9.118379290 _1_ MAC  --- 0 ACK 38 [0 1 0 0] 
s 9.118668891 _5_ MAC  --- 0 RTS 44 [14ee 2 5 0] 
r 9.119021573 _2_ MAC  --- 0 RTS 44 [14ee 2 5 0] 
s 9.119031573 _2_ MAC  --- 0 CTS 38 [13b4 5 0 0] 
r 9.119336254 _5_ MAC  --- 0 CTS 38 [13b4 5 0 0] 
s 9.119346254 _5_ MAC  --- 7 cbr 590 [13a 2 5 800] ------- [1:0 2:0 29 2] [7] 1 1
r 9.124066936 _2_ MAC  --- 7 cbr 532 [13a 2 5 800] ------- [1:0 2:0 29 2] [7] 2 1
s 9.124076936 _2_ MAC  --- 0 ACK 38 [0 5 0 0] 
r 9.124091936 _2_ AGT  --- 7 cbr 532 [13a 2 5 800] ------- [1:0 2:0 29 2] [7] 2 1
r 9.124381618 _5_ MAC  --- 0 ACK 38 [0 5 0 0] 
s 9.939909692 _1_ AGT  --- 8 cbr 512 [0 0 0 0] ------- [1:0 2:0 32 0] [8] 0 1
r 9.939909692 _1_ RTR  --- 8 cbr 512 [0 0 0 0] ------- [1:0 2:0 32 0] [8] 0 1
s 9.939909692 _1_ RTR  --- 8 cbr 532 [0 0 0 0] ------- [1:0 2:0 30 5] [8] 0 1
s 9.940464692 _1_ MAC  --- 0 RTS 44 [14ee 5 1 0] 
r 9.940817085 _5_ MAC  --- 0 RTS 44 [14ee 5 1 0] 
s 9.940827085 _5_ MAC  --- 0 CTS 38 [13b4 1 0 0] 
r 9.941131477 _1_ MAC  --- 0 CTS 38 [13b4 1 0 0] 
s 9.941141477 _1_ MAC  --- 8 cbr 590 [13a 5 1 800] ------- [1:0 2:0 30 5] [8] 0 1
r 9.945861869 _5_ MAC  --- 8 cbr 532 [13a 5 1 800] ------- [1:0 2:0 30 5] [8] 1 1
s 9.945871869 _5_ MAC  --- 0 ACK 38 [0 1 0 0] 
r 9.945886869 _5_ RTR  --- 8 cbr 532 [13a 5 1 800] ------- [1:0 2:0 30 5] [8] 1 1
f 9.945886869 _5_ RTR  --- 8 cbr 532 [13a 5 1 800] ------- [1:0 2:0 29 2] [8] 1 1
r 9.946176261 _1_ MAC  --- 0 ACK 38 [0 1 0 0] 
s 9.946465869 _5_ MAC  --- 0 RTS 44 [14ee 2 5 0] 
r 9.946818551 _2_ MAC  --- 0 RTS 44 [14ee 2 5 0] 
s 9.946828551 _2_ MAC  --- 0 CTS 38 [13b4 5 0 0] 
r 9.947133233 _5_ MAC  --- 0 CTS 38 [13b4 5 0 0] 
s 9.947143233 _5_ MAC  --- 8 cbr 590 [13a 2 5 800] ------- [1:0 2:0 29 2] [8] 1 1
r 9.951863915 _2_ MAC  --- 8 cbr 532 [13a 2 5 800] ------- [1:0 2:0 29 2] [8] 2 1
s 9.951873915 _2_ MAC  --- 0 ACK 38 [0 5 0 0] 
r 9.951888915 _2_ AGT  --- 8 cbr 532 [13a 2 5 800] ------- [1:0 2:0 29 2] [8] 2 1
r 9.952178598 _5_ MAC  --- 0 ACK 38 [0 5 0 0] 
M 10.41365 3 (121.61, 36.25, 0.00), (121.61, 36.25), 0.00
s 10.646643721 _1_ AGT  --- 9 cbr 512 [0 0 0 0] ------- [1:0 2:0 32 0] [9] 0 1
r 10.646643721 _1_ RTR  --- 9 cbr 512 [0 0 0 0] ------- [1:0 2:0 32 0] [9] 0 1
s 10.646643721 _1_ RTR  --- 9 cbr 532 [0 0 0 0] ------- [1:0 2:0 30 5] [9] 0 1
s 10.647178721 _1_ MAC  --- 0 RTS 44 [14ee 5 1 0] 
r 10.647531108 _5_ MAC  --- 0 RTS 44 [14ee 5 1 0] 
s 10.647541108 _5_ MAC  --- 0 CTS 38 [13b4 1 0 0] 
r 10.647845495 _1_ MAC  --- 0 CTS 38 [13b4 1 0 0] 
s 10.647855495 _1_ MAC  --- 9 cbr 590 [13a 5 1 800] ------- [1:0 2:0 30 5] [9] 0 1
r 10.652575881 _5_ MAC  --- 9 cbr 532 [13a 5 1 800] ------- [1:0 2:0 30 5] [9] 1 1
s 10.652585881 _5_ MAC  --- 0 ACK 38 [0 1 0 0] 
r 10.652600881 _5_ RTR  --- 9 cbr 532 [13a 5 1 800] ------- [1:0 2:0 30 5] [9] 1 1
f 10.652600881 _5_ RTR  --- 9 cbr 532 [13a 5 1 800] ------- [1:0 2:0 29 2] [9] 1 1
r 10.652890268 _1_ MAC  --- 0 ACK 38 [0 1 0 0] 
s 10.653059881 _5_ MAC  --- 0 RTS 44 [14ee 2 5 0] 
r 10.653412567 _2_ MAC  --- 0 RTS 44 [14ee 2 5 0] 
s 10.653422567 _2_ MAC  --- 0 CTS 38 [13b4 5 0 0] 
r 10.653727253 _5_ MAC  --- 0 CTS 38 [13b4 5 0 0] 
s 10.653737253 _5_ MAC  --- 9 cbr 590 [13a 2 5 800] ------- [1:0 2:0 29 2] [9] 1 1
r 10.658457939 _2_ MAC  --- 9 cbr 532 [13a 2 5 800] ------- [1:0 2:0 29 2] [9] 2 1
s 10.658467939 _2_ MAC  --- 0 ACK 38 [0 5 0 0] 
r 10.658482939 _2_ AGT  --- 9 cbr 532 [13a 2 5 800] ------- [1:0 2:0 29 2] [9] 2 1
r 10.658772625 _5_ MAC  --- 0 ACK 38 [0 5 0 0] 
M 11.41365 3 (121.61, 36.25, 0.00), (155.28, 217.66), 48.36
s 11.638365424 _1_ AGT  --- 10 cbr 512 [0 0 0 0] ------- [1:0 2:0 32 0] [10] 0 1
r 11.638365424 _1_ RTR  --- 10 cbr 512 [0 0 0 0] ------- [1:0 2:0 32 0] [10] 0 1
s 11.638365424 _1_ RTR  --- 10 cbr 532 [0 0 0 0] ------- [1:0 2:0 30 5] [10] 0 1
s 11.638700424 _1_ MAC  --- 0 RTS 44 [14ee 5 1 0] 
r 11.639052804 _5_ MAC  --- 0 RTS 44 [14ee 5 1 0] 
s 11.639062804 _5_ MAC  --- 0 CTS 38 [13b4 1 0 0] 
r 11.639367185 _1_ MAC  --- 0 CTS 38 [13b4 1 0 0] 
s 11.639377185 _1_ MAC  --- 10 cbr 590 [13a 5 1 800] ------- [1:0 2:0 30 5] [10] 0 1
r 11.644097565 _5_ MAC  --- 10 cbr 532 [13a 5 1 800] ------- [1:0 2:0 30 5] [10] 1 1
s 11.644107565 _5_ MAC  --- 0 ACK 38 [0 1 0 0] 
r 11.644122565 _5_ RTR  --- 10 cbr 532 [13a 5 1 800] ------- [1:0 2:0 30 5] [10] 1 1
f 11.644122565 _5_ RTR  --- 10 cbr 532 [13a 5 1 800] ------- [1:0 2:0 29 2] [10] 1 1
r 11.644411945 _1_ MAC  --- 0 ACK 38 [0 1 0 0] 
s 11.644661565 _5_ MAC  --- 0 RTS 44 [14ee 2 5 0] 
r 11.645014261 _2_ MAC  --- 0 RTS 44 [14ee 2 5 0] 
s 11.645024261 _2_ MAC  --- 0 CTS 38 [13b4 5 0 0] 
r 11.645328958 _5_ MAC  --- 0 CTS 38 [13b4 5 0 0] 
s 11.645338958 _5_ MAC  --- 10 cbr 590 [13a 2 5 800] ------- [1:0 2:0 29 2] [10] 1 1
r 11.650059655 _2_ MAC  --- 10 cbr 532 [13a 2 5 800] ------- [1:0 2:0 29 2] [10] 2 1
s 11.650069655 _2_ MAC  --- 0 ACK 38 [0 5 0 0] 
r 11.650084655 _2_ AGT  --- 10 cbr 532 [13a 2 5 800] ------- [1:0 2:0 29 2] [10] 2 1
r 11.650374352 _5_ MAC  --- 0 ACK 38 [0 5 0 0] 
s 12.559585475 _1_ AGT  --- 11 cbr 512 [0 0 0 0] ------- [1:0 2:0 32 0] [11] 0 1
r 12.559585475 _1_ RTR  --- 11 cbr 512 [0 0 0 0] ------- [1:0 2:0 32 0] [11] 0 1
s 12.559585475 _1_ RTR  --- 11 cbr 532 [0 0 0 0] ------- [1:0 2:0 30 5] [11] 0 1
s 12.559780475 _1_ MAC  --- 0 RTS 44 [14ee 5 1 0] 
r 12.560132850 _5_ MAC  --- 0 RTS 44 [14ee 5 1 0] 
s 12.560142850 _5_ MAC  --- 0 CTS 38 [13b4 1 0 0] 
r 12.560447225 _1_ MAC  --- 0 CTS 38 [13b4 1 0 0] 
s 12.560457225 _1_ MAC  --- 11 cbr 590 [13a 5 1 800] ------- [1:0 2:0 30 5] [11] 0 1
r 12.565177600 _5_ MAC  --- 11 cbr 532 [13a 5 1 800] ------- [1:0 2:0 30 5] [11] 1 1
s 12.565187600 _5_ MAC  --- 0 ACK 38 [0 1 0 0] 
r 12.565202600 _5_ RTR  --- 11 cbr 532 [13a 5 1 800] ------- [1:0 2:0 30 5] [11] 1 1
f 12.565202600 _5_ RTR  --- 11 cbr 532 [13a 5 1 800] ------- [1:0 2:0 29 2] [11] 1 1
r 12.565491975 _1_ MAC  --- 0 ACK 38 [0 1 0 0] 
s 12.565601600 _5_ MAC  --- 0 RTS 44 [14ee 2 5 0] 
r 12.565954312 _2_ MAC  --- 0 RTS 44 [14ee 2 5 0] 
s 12.565964312 _2_ MAC  --- 0 CTS 38 [13b4 5 0 0] 
r 12.566269024 _5_ MAC  --- 0 CTS 38 [13b4 5 0 0] 
s 12.566279024 _5_ MAC  --- 11 cbr 590 [13a 2 5 800] ------- [1:0 2:0 29 2] [11] 1 1
r 12.570999736 _2_ MAC  --- 11 cbr 532 [13a 2 5 800] ------- [1:0 2:0 29 2] [11] 2 1
s 12.571009736 _2_ MAC  --- 0 ACK 38 [0 5 0 0] 
r 12.571024736 _2_ AGT  --- 11 cbr 532 [13a 2 5 800] ------- [1:0 2:0 29 2] [11] 2 1
r 12.571314448 _5_ MAC  --- 0 ACK 38 [0 5 0 0] 
s 13.934231779 _1_ AGT  --- 12 cbr 512 [0 0 0 0] ------- [1:0 2:0 32 0] [12] 0 1
r 13.934231779 _1_ RTR  --- 12 cbr 512 [0 0 0 0] ------- [1:0 2:0 32 0] [12] 0 1
s 13.934231779 _1_ RTR  --- 12 cbr 532 [0 0 0 0] ------- [1:0 2:0 30 5] [12] 0 1
s 13.934746779 _1_ MAC  --- 0 RTS 44 [14ee 5 1 0] 
r 13.935099148 _5_ MAC  --- 0 RTS 44 [14ee 5 1 0] 
s 13.935109148 _5_ MAC  --- 0 CTS 38 [13b4 1 0 0] 
r 13.935413517 _1_ MAC  --- 0 CTS 38 [13b4 1 0 0] 
s 13.935423517 _1_ MAC  --- 12 cbr 590 [13a 5 1 800] ------- [1:0 2:0 30 5] [12] 0 1
r 13.940143886 _5_ MAC  --- 12 cbr 532 [13a 5 1 800] ------- [1:0 2:0 30 5] [12] 1 1
s 13.940153886 _5_ MAC  --- 0 ACK 38 [0 1 0 0] 
r 13.940168886 _5_ RTR  --- 12 cbr 532 [13a 5 1 800] ------- [1:0 2:0 30 5] [12] 1 1
f 13.940168886 _5_ RTR  --- 12 cbr 532 [13a 5 1 800] ------- [1:0 2:0 29 2] [12] 1 1
r 13.940458255 _1_ MAC  --- 0 ACK 38 [0 1 0 0] 
s 13.941047886 _5_ MAC  --- 0 RTS 44 [14ee 2 5 0] 
r 13.941400630 _2_ MAC  --- 0 RTS 44 [14ee 2 5 0] 
s 13.941410630 _2_ MAC  --- 0 CTS 38 [13b4 5 0 0] 
r 13.941715373 _5_ MAC  --- 0 CTS 38 [13b4 5 0 0] 
s 13.941725373 _5_ MAC  --- 12 cbr 590 [13a 2 5 800] ------- [1:0 2:0 29 2] [12] 1 1
r 13.946446117 _2_ MAC  --- 12 cbr 532 [13a 2 5 800] ------- [1:0 2:0 29 2] [12] 2 1
s 13.946456117 _2_ MAC  --- 0 ACK 38 [0 5 0 0] 
r 13.946471117 _2_ AGT  --- 12 cbr 532 [13a 2 5 800] ------- [1:0 2:0 29 2] [12] 2 1
r 13.946760860 _5_ MAC  --- 0 ACK 38 [0 5 0 0] 
s 14.992640366 _1_ AGT  --- 13 cbr 512 [0 0 0 0] ------- [1:0 2:0 32 0] [13] 0 1
r 14.992640366 _1_ RTR  --- 13 cbr 512 [0 0 0 0] ------- [1:0 2:0 32 0] [13] 0 1
s 14.992640366 _1_ RTR  --- 13 cbr 532 [0 0 0 0] ------- [1:0 2:0 30 5] [13] 0 1
s 14.993055366 _1_ MAC  --- 0 RTS 44 [14ee 5 1 0] 
r 14.993407732 _5_ MAC  --- 0 RTS 44 [14ee 5 1 0] 
s 14.993417732 _5_ MAC  --- 0 CTS 38 [13b4 1 0 0] 
r 14.993722098 _1_ MAC  --- 0 CTS 38 [13b4 1 0 0] 
s 14.993732098 _1_ MAC  --- 13 cbr 590 [13a 5 1 800] ------- [1:0 2:0 30 5] [13] 0 1
r 14.998452464 _5_ MAC  --- 13 cbr 532 [13a 5 1 800] ------- [1:0 2:0 30 5] [13] 1 1
s 14.998462464 _5_ MAC  --- 0 ACK 38 [0 1 0 0] 
r 14.998477464 _5_ RTR  --- 13 cbr 532 [13a 5 1 800] ------- [1:0 2:0 30 5] [13] 1 1
f 14.998477464 _5_ RTR  --- 13 cbr 532 [13a 5 1 800] ------- [1:0 2:0 29 2] [13] 1 1
r 14.998766831 _1_ MAC  --- 0 ACK 38 [0 1 0 0] 
s 14.998856464 _5_ MAC  --- 0 RTS 44 [14ee 2 5 0] 
r 14.999209239 _2_ MAC  --- 0 RTS 44 [14ee 2 5 0] 
s 14.999219239 _2_ MAC  --- 0 CTS 38 [13b4 5 0 0] 
r 14.999524013 _5_ MAC  --- 0 CTS 38 [13b4 5 0 0] 
s 14.999534013 _5_ MAC  --- 13 cbr 590 [13a 2 5 800] ------- [1:0 2:0 29 2] [13] 1 1
r 15.004254787 _2_ MAC  --- 13 cbr 532 [13a 2 5 800] ------- [1:0 2:0 29 2] [13] 2 1
s 15.004264787 _2_ MAC  --- 0 ACK 38 [0 5 0 0] 
r 15.004279787 _2_ AGT  --- 13 cbr 532 [13a 2 5 800] ------- [1:0 2:0 29 2] [13] 2 1
r 15.004569562 _5_ MAC  --- 0 ACK 38 [0 5 0 0] 
M 15.22901 3 (155.28, 217.66, 0.00), (155.28, 217.66), 0.00
s 15.899017884 _1_ AGT  --- 14 cbr 512 [0 0 0 0] ------- [1:0 2:0 32 0] [14] 0 1
r 15.899017884 _1_ RTR  --- 14 cbr 512 [0 0 0 0] ------- [1:0 2:0 32 0] [14] 0 1
s 15.899017884 _1_ RTR  --- 14 cbr 532 [0 0 0 0] ------- [1:0 2:0 30 5] [14] 0 1
s 15.899252884 _1_ MAC  --- 0 RTS 44 [14ee 5 1 0] 
r 15.899605249 _5_ MAC  --- 0 RTS 44 [14ee 5 1 0] 
s 15.899615249 _5_ MAC  --- 0 CTS 38 [13b4 1 0 0] 
r 15.899919614 _1_ MAC  --- 0 CTS 38 [13b4 1 0 0] 